 Entering Gaussian System, Link 0=g16
 Input=5water-v2.gjf
 Output=5water-v2.log
 Initial command:
 /packages/apps/gaussian/g16/g16/l1.exe "/scratch/mdturne9/26scratch/Gau-1174860.inp" -scrdir="/scratch/mdturne9/26scratch/"
 Entering Link 1 = /packages/apps/gaussian/g16/g16/l1.exe PID=   1174861.
  
 Copyright (c) 1988,1990,1992,1993,1995,1998,2003,2009,2016,
            Gaussian, Inc.  All Rights Reserved.
  
 This is part of the Gaussian(R) 16 program.  It is based on
 the Gaussian(R) 09 system (copyright 2009, Gaussian, Inc.),
 the Gaussian(R) 03 system (copyright 2003, Gaussian, Inc.),
 the Gaussian(R) 98 system (copyright 1998, Gaussian, Inc.),
 the Gaussian(R) 94 system (copyright 1995, Gaussian, Inc.),
 the Gaussian 92(TM) system (copyright 1992, Gaussian, Inc.),
 the Gaussian 90(TM) system (copyright 1990, Gaussian, Inc.),
 the Gaussian 88(TM) system (copyright 1988, Gaussian, Inc.),
 the Gaussian 86(TM) system (copyright 1986, Carnegie Mellon
 University), and the Gaussian 82(TM) system (copyright 1983,
 Carnegie Mellon University). Gaussian is a federally registered
 trademark of Gaussian, Inc.
  
 This software contains proprietary and confidential information,
 including trade secrets, belonging to Gaussian, Inc.
  
 This software is provided under written license and may be
 used, copied, transmitted, or stored only in accord with that
 written license.
  
 The following legend is applicable only to US Government
 contracts under FAR:
  
                    RESTRICTED RIGHTS LEGEND
  
 Use, reproduction and disclosure by the US Government is
 subject to restrictions as set forth in subparagraphs (a)
 and (c) of the Commercial Computer Software - Restricted
 Rights clause in FAR 52.227-19.
  
 Gaussian, Inc.
 340 Quinnipiac St., Bldg. 40, Wallingford CT 06492
  
  
 ---------------------------------------------------------------
 Warning -- This program may not be used in any manner that
 competes with the business of Gaussian, Inc. or will provide
 assistance to any competitor of Gaussian, Inc.  The licensee
 of this program is prohibited from giving any competitor of
 Gaussian, Inc. access to this program.  By using this program,
 the user acknowledges that Gaussian, Inc. is engaged in the
 business of creating and licensing software in the field of
 computational chemistry and represents and warrants to the
 licensee that it is not a competitor of Gaussian, Inc. and that
 it will not use this program in any manner prohibited above.
 ---------------------------------------------------------------
  

 Cite this work as:
 Gaussian 16, Revision A.03,
 M. J. Frisch, G. W. Trucks, H. B. Schlegel, G. E. Scuseria, 
 M. A. Robb, J. R. Cheeseman, G. Scalmani, V. Barone, 
 G. A. Petersson, H. Nakatsuji, X. Li, M. Caricato, A. V. Marenich, 
 J. Bloino, B. G. Janesko, R. Gomperts, B. Mennucci, H. P. Hratchian, 
 J. V. Ortiz, A. F. Izmaylov, J. L. Sonnenberg, D. Williams-Young, 
 F. Ding, F. Lipparini, F. Egidi, J. Goings, B. Peng, A. Petrone, 
 T. Henderson, D. Ranasinghe, V. G. Zakrzewski, J. Gao, N. Rega, 
 G. Zheng, W. Liang, M. Hada, M. Ehara, K. Toyota, R. Fukuda, 
 J. Hasegawa, M. Ishida, T. Nakajima, Y. Honda, O. Kitao, H. Nakai, 
 T. Vreven, K. Throssell, J. A. Montgomery, Jr., J. E. Peralta, 
 F. Ogliaro, M. J. Bearpark, J. J. Heyd, E. N. Brothers, K. N. Kudin, 
 V. N. Staroverov, T. A. Keith, R. Kobayashi, J. Normand, 
 K. Raghavachari, A. P. Rendell, J. C. Burant, S. S. Iyengar, 
 J. Tomasi, M. Cossi, J. M. Millam, M. Klene, C. Adamo, R. Cammi, 
 J. W. Ochterski, R. L. Martin, K. Morokuma, O. Farkas, 
 J. B. Foresman, and D. J. Fox, Gaussian, Inc., Wallingford CT, 2016.
 
 ******************************************
 Gaussian 16:  ES64L-G16RevA.03 25-Dec-2016
                 2-Mar-2024 
 ******************************************
 %oldchk=5water.chk
 %nprocshared=20
 Will use up to   20 processors via shared memory.
 %mem=10GB
 %chk=5water-v2.chk
 Copying data from "5water.chk" to current chk file "5water-v2.chk"
 IOpt=  2 FromEx=T IUOpen= 4 IOptOp= 5 NList=   0 IFRang= 0 IUIn= 4 IUOut= 2.
 ------------------------------------------------
 #p opt=readfc wb97xd/6-311+g(2d,2p) guess=tcheck
 ------------------------------------------------
 1/10=3,18=20,19=15,26=3,38=1/1,3;
 2/9=110,12=2,17=6,18=5,40=1/2;
 3/5=4,6=6,7=212,11=2,25=1,30=1,71=1,74=-58,116=-2/1,2,3;
 4/5=101/1;
 5/5=2,38=6/2;
 6/7=2,8=2,9=2,10=2,28=1/1;
 7//1,2,3,16;
 1/18=20,19=15,26=3/3(2);
 2/9=110/2;
 99//99;
 2/9=110/2;
 3/5=4,6=6,7=212,11=2,25=1,30=1,71=1,74=-58/1,2,3;
 4/5=5,16=3,69=1/1;
 5/5=2,38=5/2;
 7//1,2,3,16;
 1/18=20,19=15,26=3/3(-5);
 2/9=110/2;
 6/7=2,8=2,9=2,10=2,19=2,28=1/1;
 99/9=1/99;
 Leave Link    1 at Sat Mar  2 13:14:13 2024, MaxMem=  1342177280 cpu:              29.7 elap:               2.2
 (Enter /packages/apps/gaussian/g16/g16/l101.exe)
 --------
 Required
 --------
 Symbolic Z-matrix:
 Charge =  0 Multiplicity = 1
 C                    0     3.81004  -4.78147   1.16224  H 
 C                    0     3.52708  -3.6372    0.18553  H 
 H                    0     3.26497  -5.68241   0.88001  H 
 H                    0     4.87522  -5.01695   1.1807   H 
 H                    0     3.51013  -4.51298   2.17664  H 
 C                    0     4.34771  -2.39043   0.55162  H 
 H                    0     3.85513  -3.95731  -0.80762  H 
 C                    0     4.13014  -1.20043  -0.3789   H 
 H                    0     4.19136  -1.53396  -1.42024  H 
 H                    0     3.11687  -0.82031  -0.23932  H 
 C                    0     5.14539  -0.08334  -0.15436  H 
 C                    0     4.90942   1.18733  -0.99674  H 
 H                    0     4.75504   0.87066  -2.03207  H 
 C                    0     6.14312   2.08932  -0.96333  H 
 H                    0     5.96751   3.02312  -1.49785  H 
 H                    0     6.43424   2.3345    0.05963  H 
 H                    0     6.99076   1.58476  -1.42786  H 
 C                    0     2.04424  -3.34419   0.08723  H 
 C                    0     1.31774  -2.8989    1.18992  H 
 C                    0     1.37666  -3.47226  -1.12573  H 
 C                    0    -0.02372  -2.57564   1.07994  H 
 H                    0     1.8109   -2.76176   2.14389  H 
 C                    0     0.0339   -3.14696  -1.24244  H 
 H                    0     1.92336  -3.79151  -2.00423  H 
 C                    0    -0.68486  -2.69592  -0.14044  H 
 H                    0    -0.54327  -2.16572   1.93663  H 
 H                    0    -0.43518  -3.17389  -2.217    H 
 C                    0     3.64112   1.88559  -0.55041  H 
 C                    0     3.62604   2.77283   0.52346  H 
 C                    0     2.42478   1.5655   -1.14935  H 
 C                    0     2.43075   3.28387   1.00866  H 
 H                    0     4.55024   3.0503    1.01235  H 
 C                    0     1.22957   2.04549  -0.64864  H 
 H                    0     2.39369   0.88418  -1.99046  H 
 C                    0     1.21674   2.90878   0.44361  H 
 H                    0     2.44515   3.94249   1.8697   H 
 H                    0     0.30449   1.68753  -1.07442  H 
 C                    0    -0.08439   3.26688   1.09625  H 
 H                    0    -0.70619   2.37277   1.13353  H 
 H                    0     0.07541   3.63661   2.10726  H 
 C                    0    -2.09304  -2.19742  -0.28037  H 
 H                    0    -2.32441  -1.50245   0.5193   H 
 H                    0    -2.23439  -1.69017  -1.23136  H 
 C                    0    -2.21776   4.42122   1.1527   H 
 H                    0    -2.85756   5.15032   0.66371  H 
 H                    0    -2.6894    3.43924   1.12316  H 
 H                    0    -2.01075   4.71855   2.17837  H 
 C                    0    -1.19965   4.0263   -1.01809  H 
 H                    0    -0.26553   4.05966  -1.56982  H 
 H                    0    -1.65075   3.03801  -1.10186  H 
 H                    0    -1.89229   4.77539  -1.39229  H 
 C                    0    -0.2138    5.64749   0.48931  H 
 H                    0    -0.05964   5.90981   1.53312  H 
 H                    0     0.7451    5.55545  -0.01384  H 
 H                    0    -0.82237   6.40547   0.00293  H 
 C                    0    -4.50029  -2.5478   -0.28056  H 
 H                    0    -5.28704  -3.29922  -0.30907  H 
 H                    0    -4.59178  -1.92907   0.60897  H 
 H                    0    -4.52153  -1.91912  -1.17125  H 
 C                    0    -3.07115  -4.22484  -1.31493  H 
 H                    0    -3.88702  -4.94001  -1.24223  H 
 H                    0    -2.11687  -4.73901  -1.24936  H 
 H                    0    -3.13877  -3.67894  -2.25246  H 
 C                    0    -3.10448  -3.96292   1.10845  H 
 H                    0    -2.14781  -4.47194   1.18159  H 
 H                    0    -3.20533  -3.21762   1.89377  H 
 H                    0    -3.92064  -4.6796    1.16392  H 
 N                    0    -0.91905   4.34456   0.41613  H 
 N                    0    -3.18355  -3.25699  -0.19802  H 
 C                    0    -2.24115   0.9434   -0.01012  H 
 O                    0    -1.19389   0.46876   0.55098  H 
 O                    0    -3.23086   1.37427   0.6905   H 
 O                    0    -2.28045   1.02757  -1.29828  H 
 H                    0     5.15603   0.19866   0.90364  L    H        11    0.        0.        0.        0. 
 H                    0     6.1458   -0.46387  -0.38187  L    H        11    0.        0.        0.        0. 
 H                    0     5.40502  -2.6728    0.54726  L    H        6     0.        0.        0.        0. 
 H                    0     4.11704  -2.09162   1.57903  L    H        6     0.        0.        0.        0. 
 O                    0    -0.22493  -0.27556  -2.46188  L 
 H                    0    -0.98672   0.22749  -2.09025  L 
 H                    0     0.20792  -0.59848  -1.67117  L 
 O                    0    -4.59123  -0.01633  -2.22351  L 
 H                    0    -5.24569   0.56365  -1.83126  L 
 H                    0    -3.73891   0.36888  -1.91829  L 
 O                    0    -3.7386   -0.80614   2.33385  L 
 H                    0    -3.70007   0.01014   1.79328  L 
 H                    0    -2.89765  -0.76251   2.81231  L 
 O                    0    -1.06207  -0.1712    3.07723  L 
 H                    0    -1.11982   0.14723   2.13024  L 
 H                    0    -1.23523   0.59761   3.61807  L 
 O                    0    -4.50007   3.07416  -1.03119  L 
 H                    0    -4.09243   2.74583  -1.8332   L 
 H                    0    -4.14246   2.45206  -0.35793  L 
 
 Warning:  atom H74 in layer R is uses the same element as its link atom.
 Warning:  atom H75 in layer R is uses the same element as its link atom.
 Warning:  atom H76 in layer R is uses the same element as its link atom.
 Warning:  atom H77 in layer R is uses the same element as its link atom.
 Add virtual bond connecting atoms H88        and O71        Dist= 3.05D+00.
 Add virtual bond connecting atoms H79        and O73        Dist= 3.24D+00.
 Add virtual bond connecting atoms H83        and O73        Dist= 3.24D+00.
 Add virtual bond connecting atoms H92        and O72        Dist= 3.32D+00.
 Add virtual bond connecting atoms H85        and O72        Dist= 3.43D+00.
 Add virtual bond connecting atoms H86        and O87        Dist= 3.68D+00.
 Add virtual bond connecting atoms O71        and H39        Dist= 3.87D+00.
 Add virtual bond connecting atoms O72        and H46        Dist= 4.12D+00.
 Add virtual bond connecting atoms O73        and H50        Dist= 4.00D+00.
 Add virtual bond connecting atoms H79        and H37        Dist= 4.15D+00.
 Add virtual bond connecting atoms O81        and H59        Dist= 4.11D+00.
 ITRead=  0  0  0  0  0  0  0  0  0  0  0  0  0  0  0  0  0  0  0  0
 ITRead=  0  0  0  0  0  0  0  0  0  0  0  0  0  0  0  0  0  0  0  0
 ITRead=  0  0  0  0  0  0  0  0  0  0  0  0  0  0  0  0  0  0  0  0
 ITRead=  0  0  0  0  0  0  0  0  0  0  0  0  0  0  0  0  0  0  0  0
 ITRead=  0  0  0  0  0  0  0  0  0  0  0  0
 MicOpt= -1 -1 -1 -1 -1 -1 -1 -1 -1 -1 -1 -1 -1 -1 -1 -1 -1 -1 -1 -1
 MicOpt= -1 -1 -1 -1 -1 -1 -1 -1 -1 -1 -1 -1 -1 -1 -1 -1 -1 -1 -1 -1
 MicOpt= -1 -1 -1 -1 -1 -1 -1 -1 -1 -1 -1 -1 -1 -1 -1 -1 -1 -1 -1 -1
 MicOpt= -1 -1 -1 -1 -1 -1 -1 -1 -1 -1 -1 -1 -1 -1 -1 -1 -1 -1 -1 -1
 MicOpt= -1 -1 -1 -1 -1 -1 -1 -1 -1 -1 -1 -1
 NAtoms=     92 NQM=       92 NQMF=       0 NMMI=      0 NMMIF=      0
                NMic=       0 NMicF=      0.
                    Isotopes and Nuclear Properties:
 (Nuclear quadrupole moments (NQMom) in fm**2, nuclear magnetic moments (NMagM)
  in nuclear magnetons)

  Atom         1           2           3           4           5           6           7           8           9          10
 IAtWgt=          12          12           1           1           1          12           1          12           1           1
 AtmWgt=  12.0000000  12.0000000   1.0078250   1.0078250   1.0078250  12.0000000   1.0078250  12.0000000   1.0078250   1.0078250
 NucSpn=           0           0           1           1           1           0           1           0           1           1
 AtZEff=  -0.0000000  -0.0000000  -0.0000000  -0.0000000  -0.0000000  -0.0000000  -0.0000000  -0.0000000  -0.0000000  -0.0000000
 NQMom=    0.0000000   0.0000000   0.0000000   0.0000000   0.0000000   0.0000000   0.0000000   0.0000000   0.0000000   0.0000000
 NMagM=    0.0000000   0.0000000   2.7928460   2.7928460   2.7928460   0.0000000   2.7928460   0.0000000   2.7928460   2.7928460
 AtZNuc=   6.0000000   6.0000000   1.0000000   1.0000000   1.0000000   6.0000000   1.0000000   6.0000000   1.0000000   1.0000000

  Atom        11          12          13          14          15          16          17          18          19          20
 IAtWgt=          12          12           1          12           1           1           1          12          12          12
 AtmWgt=  12.0000000  12.0000000   1.0078250  12.0000000   1.0078250   1.0078250   1.0078250  12.0000000  12.0000000  12.0000000
 NucSpn=           0           0           1           0           1           1           1           0           0           0
 AtZEff=  -0.0000000  -0.0000000  -0.0000000  -0.0000000  -0.0000000  -0.0000000  -0.0000000  -0.0000000  -0.0000000  -0.0000000
 NQMom=    0.0000000   0.0000000   0.0000000   0.0000000   0.0000000   0.0000000   0.0000000   0.0000000   0.0000000   0.0000000
 NMagM=    0.0000000   0.0000000   2.7928460   0.0000000   2.7928460   2.7928460   2.7928460   0.0000000   0.0000000   0.0000000
 AtZNuc=   6.0000000   6.0000000   1.0000000   6.0000000   1.0000000   1.0000000   1.0000000   6.0000000   6.0000000   6.0000000

  Atom        21          22          23          24          25          26          27          28          29          30
 IAtWgt=          12           1          12           1          12           1           1          12          12          12
 AtmWgt=  12.0000000   1.0078250  12.0000000   1.0078250  12.0000000   1.0078250   1.0078250  12.0000000  12.0000000  12.0000000
 NucSpn=           0           1           0           1           0           1           1           0           0           0
 AtZEff=  -0.0000000  -0.0000000  -0.0000000  -0.0000000  -0.0000000  -0.0000000  -0.0000000  -0.0000000  -0.0000000  -0.0000000
 NQMom=    0.0000000   0.0000000   0.0000000   0.0000000   0.0000000   0.0000000   0.0000000   0.0000000   0.0000000   0.0000000
 NMagM=    0.0000000   2.7928460   0.0000000   2.7928460   0.0000000   2.7928460   2.7928460   0.0000000   0.0000000   0.0000000
 AtZNuc=   6.0000000   1.0000000   6.0000000   1.0000000   6.0000000   1.0000000   1.0000000   6.0000000   6.0000000   6.0000000

  Atom        31          32          33          34          35          36          37          38          39          40
 IAtWgt=          12           1          12           1          12           1           1          12           1           1
 AtmWgt=  12.0000000   1.0078250  12.0000000   1.0078250  12.0000000   1.0078250   1.0078250  12.0000000   1.0078250   1.0078250
 NucSpn=           0           1           0           1           0           1           1           0           1           1
 AtZEff=  -0.0000000  -0.0000000  -0.0000000  -0.0000000  -0.0000000  -0.0000000  -0.0000000  -0.0000000  -0.0000000  -0.0000000
 NQMom=    0.0000000   0.0000000   0.0000000   0.0000000   0.0000000   0.0000000   0.0000000   0.0000000   0.0000000   0.0000000
 NMagM=    0.0000000   2.7928460   0.0000000   2.7928460   0.0000000   2.7928460   2.7928460   0.0000000   2.7928460   2.7928460
 AtZNuc=   6.0000000   1.0000000   6.0000000   1.0000000   6.0000000   1.0000000   1.0000000   6.0000000   1.0000000   1.0000000

  Atom        41          42          43          44          45          46          47          48          49          50
 IAtWgt=          12           1           1          12           1           1           1          12           1           1
 AtmWgt=  12.0000000   1.0078250   1.0078250  12.0000000   1.0078250   1.0078250   1.0078250  12.0000000   1.0078250   1.0078250
 NucSpn=           0           1           1           0           1           1           1           0           1           1
 AtZEff=  -0.0000000  -0.0000000  -0.0000000  -0.0000000  -0.0000000  -0.0000000  -0.0000000  -0.0000000  -0.0000000  -0.0000000
 NQMom=    0.0000000   0.0000000   0.0000000   0.0000000   0.0000000   0.0000000   0.0000000   0.0000000   0.0000000   0.0000000
 NMagM=    0.0000000   2.7928460   2.7928460   0.0000000   2.7928460   2.7928460   2.7928460   0.0000000   2.7928460   2.7928460
 AtZNuc=   6.0000000   1.0000000   1.0000000   6.0000000   1.0000000   1.0000000   1.0000000   6.0000000   1.0000000   1.0000000

  Atom        51          52          53          54          55          56          57          58          59          60
 IAtWgt=           1          12           1           1           1          12           1           1           1          12
 AtmWgt=   1.0078250  12.0000000   1.0078250   1.0078250   1.0078250  12.0000000   1.0078250   1.0078250   1.0078250  12.0000000
 NucSpn=           1           0           1           1           1           0           1           1           1           0
 AtZEff=  -0.0000000  -0.0000000  -0.0000000  -0.0000000  -0.0000000  -0.0000000  -0.0000000  -0.0000000  -0.0000000  -0.0000000
 NQMom=    0.0000000   0.0000000   0.0000000   0.0000000   0.0000000   0.0000000   0.0000000   0.0000000   0.0000000   0.0000000
 NMagM=    2.7928460   0.0000000   2.7928460   2.7928460   2.7928460   0.0000000   2.7928460   2.7928460   2.7928460   0.0000000
 AtZNuc=   1.0000000   6.0000000   1.0000000   1.0000000   1.0000000   6.0000000   1.0000000   1.0000000   1.0000000   6.0000000

  Atom        61          62          63          64          65          66          67          68          69          70
 IAtWgt=           1           1           1          12           1           1           1          14          14          12
 AtmWgt=   1.0078250   1.0078250   1.0078250  12.0000000   1.0078250   1.0078250   1.0078250  14.0030740  14.0030740  12.0000000
 NucSpn=           1           1           1           0           1           1           1           2           2           0
 AtZEff=  -0.0000000  -0.0000000  -0.0000000  -0.0000000  -0.0000000  -0.0000000  -0.0000000  -0.0000000  -0.0000000  -0.0000000
 NQMom=    0.0000000   0.0000000   0.0000000   0.0000000   0.0000000   0.0000000   0.0000000   2.0440000   2.0440000   0.0000000
 NMagM=    2.7928460   2.7928460   2.7928460   0.0000000   2.7928460   2.7928460   2.7928460   0.4037610   0.4037610   0.0000000
 AtZNuc=   1.0000000   1.0000000   1.0000000   6.0000000   1.0000000   1.0000000   1.0000000   7.0000000   7.0000000   6.0000000

  Atom        71          72          73          74          75          76          77          78          79          80
 IAtWgt=          16          16          16           1           1           1           1          16           1           1
 AtmWgt=  15.9949146  15.9949146  15.9949146   1.0078250   1.0078250   1.0078250   1.0078250  15.9949146   1.0078250   1.0078250
 NucSpn=           0           0           0           1           1           1           1           0           1           1
 AtZEff=  -0.0000000  -0.0000000  -0.0000000  -0.0000000  -0.0000000  -0.0000000  -0.0000000  -0.0000000  -0.0000000  -0.0000000
 NQMom=    0.0000000   0.0000000   0.0000000   0.0000000   0.0000000   0.0000000   0.0000000   0.0000000   0.0000000   0.0000000
 NMagM=    0.0000000   0.0000000   0.0000000   2.7928460   2.7928460   2.7928460   2.7928460   0.0000000   2.7928460   2.7928460
 AtZNuc=   8.0000000   8.0000000   8.0000000   1.0000000   1.0000000   1.0000000   1.0000000   8.0000000   1.0000000   1.0000000

  Atom        81          82          83          84          85          86          87          88          89          90
 IAtWgt=          16           1           1          16           1           1          16           1           1          16
 AtmWgt=  15.9949146   1.0078250   1.0078250  15.9949146   1.0078250   1.0078250  15.9949146   1.0078250   1.0078250  15.9949146
 NucSpn=           0           1           1           0           1           1           0           1           1           0
 AtZEff=  -0.0000000  -0.0000000  -0.0000000  -0.0000000  -0.0000000  -0.0000000  -0.0000000  -0.0000000  -0.0000000  -0.0000000
 NQMom=    0.0000000   0.0000000   0.0000000   0.0000000   0.0000000   0.0000000   0.0000000   0.0000000   0.0000000   0.0000000
 NMagM=    0.0000000   2.7928460   2.7928460   0.0000000   2.7928460   2.7928460   0.0000000   2.7928460   2.7928460   0.0000000
 AtZNuc=   8.0000000   1.0000000   1.0000000   8.0000000   1.0000000   1.0000000   8.0000000   1.0000000   1.0000000   8.0000000

  Atom        91          92
 IAtWgt=           1           1
 AtmWgt=   1.0078250   1.0078250
 NucSpn=           1           1
 AtZEff=  -0.0000000  -0.0000000
 NQMom=    0.0000000   0.0000000
 NMagM=    2.7928460   2.7928460
 AtZNuc=   1.0000000   1.0000000
 Leave Link  101 at Sat Mar  2 13:14:14 2024, MaxMem=  1342177280 cpu:               4.6 elap:               0.5
 (Enter /packages/apps/gaussian/g16/g16/l103.exe)

 GradGradGradGradGradGradGradGradGradGradGradGradGradGradGradGradGradGrad
 Berny optimization.
 Initialization pass.
 Force constant matrix read from checkpoint file:
 "5water-v2.chk"
 NVar current= 552 chk= 586 common= 460.
                           ----------------------------
                           !    Initial Parameters    !
                           ! (Angstroms and Degrees)  !
 --------------------------                            --------------------------
 ! Name  Definition              Value          Derivative Info.                !
 --------------------------------------------------------------------------------
 ! R1    R(1,2)                  1.5308         D2E/DX2 =    0.2787             !
 ! R2    R(1,3)                  1.0902         D2E/DX2 =    0.3308             !
 ! R3    R(1,4)                  1.0911         D2E/DX2 =    0.331              !
 ! R4    R(1,5)                  1.0913         D2E/DX2 =    0.333              !
 ! R5    R(2,6)                  1.5369         D2E/DX2 =    0.2585             !
 ! R6    R(2,7)                  1.0938         D2E/DX2 =    0.3202             !
 ! R7    R(2,18)                 1.5147         D2E/DX2 =    0.2808             !
 ! R8    R(6,8)                  1.5262         D2E/DX2 =    0.2689             !
 ! R9    R(6,76)                 1.0944         D2E/DX2 =    0.3238             !
 ! R10   R(6,77)                 1.0946         D2E/DX2 =    0.3263             !
 ! R11   R(8,9)                  1.0952         D2E/DX2 =    0.3255             !
 ! R12   R(8,10)                 1.0912         D2E/DX2 =    0.3321             !
 ! R13   R(8,11)                 1.5261         D2E/DX2 =    0.2703             !
 ! R14   R(11,12)                1.5427         D2E/DX2 =    0.2575             !
 ! R15   R(11,74)                1.095          D2E/DX2 =    0.3254             !
 ! R16   R(11,75)                1.0942         D2E/DX2 =    0.3244             !
 ! R17   R(12,13)                1.0936         D2E/DX2 =    0.322              !
 ! R18   R(12,14)                1.5286         D2E/DX2 =    0.2796             !
 ! R19   R(12,28)                1.515          D2E/DX2 =    0.2771             !
 ! R20   R(14,15)                1.0902         D2E/DX2 =    0.3314             !
 ! R21   R(14,16)                1.0915         D2E/DX2 =    0.3314             !
 ! R22   R(14,17)                1.0904         D2E/DX2 =    0.3322             !
 ! R23   R(18,19)                1.3936         D2E/DX2 =    0.3716             !
 ! R24   R(18,20)                1.3904         D2E/DX2 =    0.3727             !
 ! R25   R(19,21)                1.3842         D2E/DX2 =    0.3803             !
 ! R26   R(19,22)                1.0826         D2E/DX2 =    0.3513             !
 ! R27   R(20,23)                1.3865         D2E/DX2 =    0.3781             !
 ! R28   R(20,24)                1.0828         D2E/DX2 =    0.3505             !
 ! R29   R(21,25)                1.3932         D2E/DX2 =    0.3782             !
 ! R30   R(21,26)                1.0825         D2E/DX2 =    0.347              !
 ! R31   R(23,25)                1.3908         D2E/DX2 =    0.3809             !
 ! R32   R(23,27)                1.0819         D2E/DX2 =    0.3477             !
 ! R33   R(25,41)                1.5004         D2E/DX2 =    0.2976             !
 ! R34   R(28,29)                1.3931         D2E/DX2 =    0.3686             !
 ! R35   R(28,30)                1.3931         D2E/DX2 =    0.3736             !
 ! R36   R(29,31)                1.3876         D2E/DX2 =    0.3778             !
 ! R37   R(29,32)                1.0817         D2E/DX2 =    0.3506             !
 ! R38   R(30,33)                1.3819         D2E/DX2 =    0.374              !
 ! R39   R(30,34)                1.0829         D2E/DX2 =    0.3492             !
 ! R40   R(31,35)                1.3906         D2E/DX2 =    0.3771             !
 ! R41   R(31,36)                1.0841         D2E/DX2 =    0.3482             !
 ! R42   R(33,35)                1.3923         D2E/DX2 =    0.3802             !
 ! R43   R(33,37)                1.0795         D2E/DX2 =    0.3495             !
 ! R44   R(35,38)                1.499          D2E/DX2 =    0.293              !
 ! R45   R(37,79)                2.1979         D2E/DX2 =    0.0204             !
 ! R46   R(38,39)                1.0897         D2E/DX2 =    0.2646             !
 ! R47   R(38,40)                1.0883         D2E/DX2 =    0.2823             !
 ! R48   R(38,68)                1.5234         D2E/DX2 =    0.2486             !
 ! R49   R(39,71)                2.05           D2E/DX2 =    0.0397             !
 ! R50   R(41,42)                1.0844         D2E/DX2 =    0.3247             !
 ! R51   R(41,43)                1.087          D2E/DX2 =    0.2825             !
 ! R52   R(41,69)                1.5227         D2E/DX2 =    0.2475             !
 ! R53   R(44,45)                1.0863         D2E/DX2 =    0.3363             !
 ! R54   R(44,46)                1.0898         D2E/DX2 =    0.344              !
 ! R55   R(44,47)                1.0878         D2E/DX2 =    0.3451             !
 ! R56   R(44,68)                1.495          D2E/DX2 =    0.2494             !
 ! R57   R(46,72)                2.1782         D2E/DX2 =    0.0325             !
 ! R58   R(48,49)                1.0854         D2E/DX2 =    0.3407             !
 ! R59   R(48,50)                1.0896         D2E/DX2 =    0.3448             !
 ! R60   R(48,51)                1.0867         D2E/DX2 =    0.3352             !
 ! R61   R(48,68)                1.4957         D2E/DX2 =    0.2841             !
 ! R62   R(50,73)                2.1159         D2E/DX2 =    0.0358             !
 ! R63   R(52,53)                1.0872         D2E/DX2 =    0.3381             !
 ! R64   R(52,54)                1.0868         D2E/DX2 =    0.3398             !
 ! R65   R(52,55)                1.0869         D2E/DX2 =    0.3365             !
 ! R66   R(52,68)                1.4834         D2E/DX2 =    0.282              !
 ! R67   R(56,57)                1.0883         D2E/DX2 =    0.3379             !
 ! R68   R(56,58)                1.0874         D2E/DX2 =    0.3489             !
 ! R69   R(56,59)                1.0904         D2E/DX2 =    0.3448             !
 ! R70   R(56,69)                1.4978         D2E/DX2 =    0.2544             !
 ! R71   R(59,81)                2.1755         D2E/DX2 =    0.0326             !
 ! R72   R(60,61)                1.0874         D2E/DX2 =    0.3368             !
 ! R73   R(60,62)                1.086          D2E/DX2 =    0.3393             !
 ! R74   R(60,63)                1.087          D2E/DX2 =    0.3385             !
 ! R75   R(60,69)                1.4822         D2E/DX2 =    0.2849             !
 ! R76   R(64,65)                1.0861         D2E/DX2 =    0.3389             !
 ! R77   R(64,66)                1.0874         D2E/DX2 =    0.3413             !
 ! R78   R(64,67)                1.0876         D2E/DX2 =    0.3364             !
 ! R79   R(64,69)                1.4871         D2E/DX2 =    0.2813             !
 ! R80   R(70,71)                1.2794         D2E/DX2 =    0.459              !
 ! R81   R(70,72)                1.2869         D2E/DX2 =    0.4836             !
 ! R82   R(70,73)                1.2915         D2E/DX2 =    0.54               !
 ! R83   R(71,88)                1.6134         D2E/DX2 =    0.0297             !
 ! R84   R(72,85)                1.8158         D2E/DX2 =    0.0304             !
 ! R85   R(72,92)                1.7584         D2E/DX2 =    0.0202             !
 ! R86   R(73,79)                1.715          D2E/DX2 =    0.0259             !
 ! R87   R(73,83)                1.7162         D2E/DX2 =    0.0299             !
 ! R88   R(78,79)                0.9856         D2E/DX2 =    0.3892             !
 ! R89   R(78,80)                0.9575         D2E/DX2 =    0.4309             !
 ! R90   R(81,82)                0.9584         D2E/DX2 =    0.5347             !
 ! R91   R(81,83)                0.9839         D2E/DX2 =    0.4537             !
 ! R92   R(84,85)                0.9798         D2E/DX2 =    0.5117             !
 ! R93   R(84,86)                0.9685         D2E/DX2 =    0.4388             !
 ! R94   R(86,87)                1.9466         D2E/DX2 =    0.017              !
 ! R95   R(87,88)                1.0008         D2E/DX2 =    0.4044             !
 ! R96   R(87,89)                0.9558         D2E/DX2 =    0.4679             !
 ! R97   R(90,91)                0.9577         D2E/DX2 =    0.4978             !
 ! R98   R(90,92)                0.984          D2E/DX2 =    0.4095             !
 ! A1    A(2,1,3)              111.1091         D2E/DX2 =    0.1024             !
 ! A2    A(2,1,4)              110.6458         D2E/DX2 =    0.1029             !
 ! A3    A(2,1,5)              110.9997         D2E/DX2 =    0.1031             !
 ! A4    A(3,1,4)              108.3088         D2E/DX2 =    0.0505             !
 ! A5    A(3,1,5)              107.8513         D2E/DX2 =    0.0521             !
 ! A6    A(4,1,5)              107.7982         D2E/DX2 =    0.0516             !
 ! A7    A(1,2,6)              110.8372         D2E/DX2 =    0.0721             !
 ! A8    A(1,2,7)              107.7655         D2E/DX2 =    0.0234             !
 ! A9    A(1,2,18)             111.5283         D2E/DX2 =    0.0559             !
 ! A10   A(6,2,7)              107.0706         D2E/DX2 =    0.0225             !
 ! A11   A(6,2,18)             112.4122         D2E/DX2 =    0.0394             !
 ! A12   A(7,2,18)             106.9359         D2E/DX2 =    0.0218             !
 ! A13   A(2,6,8)              114.2793         D2E/DX2 =    0.1047             !
 ! A14   A(2,6,76)             107.7956         D2E/DX2 =    0.0433             !
 ! A15   A(2,6,77)             109.4222         D2E/DX2 =    0.0465             !
 ! A16   A(8,6,76)             109.6631         D2E/DX2 =    0.0455             !
 ! A17   A(8,6,77)             109.2314         D2E/DX2 =    0.044              !
 ! A18   A(76,6,77)            106.1279         D2E/DX2 =    0.0167             !
 ! A19   A(6,8,9)              109.5298         D2E/DX2 =    0.0449             !
 ! A20   A(6,8,10)             109.0267         D2E/DX2 =    0.0471             !
 ! A21   A(6,8,11)             112.7176         D2E/DX2 =    0.1188             !
 ! A22   A(9,8,10)             106.2382         D2E/DX2 =    0.0178             !
 ! A23   A(9,8,11)             109.0037         D2E/DX2 =    0.0452             !
 ! A24   A(10,8,11)            110.1173         D2E/DX2 =    0.0465             !
 ! A25   A(8,11,12)            114.8861         D2E/DX2 =    0.1021             !
 ! A26   A(8,11,74)            109.7021         D2E/DX2 =    0.0447             !
 ! A27   A(8,11,75)            108.8482         D2E/DX2 =    0.0445             !
 ! A28   A(12,11,74)           108.4788         D2E/DX2 =    0.0453             !
 ! A29   A(12,11,75)           108.2253         D2E/DX2 =    0.0435             !
 ! A30   A(74,11,75)           106.3541         D2E/DX2 =    0.0166             !
 ! A31   A(11,12,13)           107.4594         D2E/DX2 =    0.0229             !
 ! A32   A(11,12,14)           110.5263         D2E/DX2 =    0.0732             !
 ! A33   A(11,12,28)           110.2922         D2E/DX2 =    0.0411             !
 ! A34   A(13,12,14)           107.7869         D2E/DX2 =    0.0235             !
 ! A35   A(13,12,28)           107.1076         D2E/DX2 =    0.0221             !
 ! A36   A(14,12,28)           113.4051         D2E/DX2 =    0.0564             !
 ! A37   A(12,14,15)           111.3884         D2E/DX2 =    0.1028             !
 ! A38   A(12,14,16)           111.6102         D2E/DX2 =    0.1032             !
 ! A39   A(12,14,17)           110.1845         D2E/DX2 =    0.1028             !
 ! A40   A(15,14,16)           108.0644         D2E/DX2 =    0.0519             !
 ! A41   A(15,14,17)           108.2224         D2E/DX2 =    0.0506             !
 ! A42   A(16,14,17)           107.2113         D2E/DX2 =    0.0516             !
 ! A43   A(2,18,19)            121.3874         D2E/DX2 =    0.1072             !
 ! A44   A(2,18,20)            120.5845         D2E/DX2 =    0.1087             !
 ! A45   A(19,18,20)           117.996          D2E/DX2 =    0.084              !
 ! A46   A(18,19,21)           121.1293         D2E/DX2 =    0.0804             !
 ! A47   A(18,19,22)           120.0164         D2E/DX2 =    0.0815             !
 ! A48   A(21,19,22)           118.8075         D2E/DX2 =    0.0834             !
 ! A49   A(18,20,23)           121.1164         D2E/DX2 =    0.0811             !
 ! A50   A(18,20,24)           119.5044         D2E/DX2 =    0.082              !
 ! A51   A(23,20,24)           119.3286         D2E/DX2 =    0.0832             !
 ! A52   A(19,21,25)           120.6191         D2E/DX2 =    0.0804             !
 ! A53   A(19,21,26)           119.384          D2E/DX2 =    0.0844             !
 ! A54   A(25,21,26)           119.8786         D2E/DX2 =    0.0838             !
 ! A55   A(20,23,25)           120.6543         D2E/DX2 =    0.0808             !
 ! A56   A(20,23,27)           119.3313         D2E/DX2 =    0.0839             !
 ! A57   A(25,23,27)           119.8498         D2E/DX2 =    0.0829             !
 ! A58   A(21,25,23)           118.4778         D2E/DX2 =    0.0845             !
 ! A59   A(21,25,41)           119.8955         D2E/DX2 =    0.1066             !
 ! A60   A(23,25,41)           121.257          D2E/DX2 =    0.105              !
 ! A61   A(12,28,29)           121.9849         D2E/DX2 =    0.1093             !
 ! A62   A(12,28,30)           119.8921         D2E/DX2 =    0.1102             !
 ! A63   A(29,28,30)           117.9254         D2E/DX2 =    0.0839             !
 ! A64   A(28,29,31)           120.8946         D2E/DX2 =    0.0804             !
 ! A65   A(28,29,32)           120.167          D2E/DX2 =    0.0816             !
 ! A66   A(31,29,32)           118.9119         D2E/DX2 =    0.0831             !
 ! A67   A(28,30,33)           121.3039         D2E/DX2 =    0.081              !
 ! A68   A(28,30,34)           120.2375         D2E/DX2 =    0.082              !
 ! A69   A(33,30,34)           118.3692         D2E/DX2 =    0.0832             !
 ! A70   A(29,31,35)           120.7043         D2E/DX2 =    0.0806             !
 ! A71   A(29,31,36)           119.3425         D2E/DX2 =    0.0844             !
 ! A72   A(35,31,36)           119.8788         D2E/DX2 =    0.0833             !
 ! A73   A(30,33,35)           120.5045         D2E/DX2 =    0.0808             !
 ! A74   A(30,33,37)           118.889          D2E/DX2 =    0.0848             !
 ! A75   A(35,33,37)           120.4748         D2E/DX2 =    0.0845             !
 ! A76   A(31,35,33)           118.5526         D2E/DX2 =    0.0849             !
 ! A77   A(31,35,38)           121.0919         D2E/DX2 =    0.1071             !
 ! A78   A(33,35,38)           119.8464         D2E/DX2 =    0.108              !
 ! A79   A(33,37,79)           154.965          D2E/DX2 =    0.16               !
 ! A80   A(35,38,39)           108.3104         D2E/DX2 =    0.0276             !
 ! A81   A(35,38,40)           110.9871         D2E/DX2 =    0.0343             !
 ! A82   A(35,38,68)           116.7561         D2E/DX2 =    0.0856             !
 ! A83   A(39,38,40)           109.3145         D2E/DX2 =    0.0185             !
 ! A84   A(39,38,68)           106.4452         D2E/DX2 =    0.0768             !
 ! A85   A(40,38,68)           104.7658         D2E/DX2 =    0.0442             !
 ! A86   A(38,39,71)           152.6361         D2E/DX2 =    0.25               !
 ! A87   A(25,41,42)           110.1451         D2E/DX2 =    0.0261             !
 ! A88   A(25,41,43)           111.0187         D2E/DX2 =    0.0197             !
 ! A89   A(25,41,69)           115.8442         D2E/DX2 =    0.0637             !
 ! A90   A(42,41,43)           108.5616         D2E/DX2 =    0.0124             !
 ! A91   A(42,41,69)           104.671          D2E/DX2 =    0.0527             !
 ! A92   A(43,41,69)           106.1941         D2E/DX2 =    0.037              !
 ! A93   A(45,44,46)           109.7362         D2E/DX2 =    0.0522             !
 ! A94   A(45,44,47)           110.6747         D2E/DX2 =    0.051              !
 ! A95   A(45,44,68)           108.9219         D2E/DX2 =    0.1278             !
 ! A96   A(46,44,47)           110.7455         D2E/DX2 =    0.0543             !
 ! A97   A(46,44,68)           108.4459         D2E/DX2 =    0.1422             !
 ! A98   A(47,44,68)           108.2554         D2E/DX2 =    0.1273             !
 ! A99   A(49,48,50)           110.1883         D2E/DX2 =    0.0554             !
 ! A100  A(49,48,51)           110.6285         D2E/DX2 =    0.052              !
 ! A101  A(49,48,68)           108.6288         D2E/DX2 =    0.1282             !
 ! A102  A(50,48,51)           109.565          D2E/DX2 =    0.0533             !
 ! A103  A(50,48,68)           110.1454         D2E/DX2 =    0.1316             !
 ! A104  A(51,48,68)           107.6438         D2E/DX2 =    0.1279             !
 ! A105  A(53,52,54)           109.8646         D2E/DX2 =    0.0534             !
 ! A106  A(53,52,55)           109.9217         D2E/DX2 =    0.0519             !
 ! A107  A(53,52,68)           109.0683         D2E/DX2 =    0.1262             !
 ! A108  A(54,52,55)           110.2367         D2E/DX2 =    0.0517             !
 ! A109  A(54,52,68)           108.7996         D2E/DX2 =    0.1266             !
 ! A110  A(55,52,68)           108.9202         D2E/DX2 =    0.1278             !
 ! A111  A(57,56,58)           110.6994         D2E/DX2 =    0.0513             !
 ! A112  A(57,56,59)           111.2594         D2E/DX2 =    0.0534             !
 ! A113  A(57,56,69)           108.062          D2E/DX2 =    0.1278             !
 ! A114  A(58,56,59)           109.7855         D2E/DX2 =    0.0544             !
 ! A115  A(58,56,69)           107.3549         D2E/DX2 =    0.1289             !
 ! A116  A(59,56,69)           109.579          D2E/DX2 =    0.1448             !
 ! A117  A(56,59,81)           154.1571         D2E/DX2 =    0.25               !
 ! A118  A(61,60,62)           110.114          D2E/DX2 =    0.0518             !
 ! A119  A(61,60,63)           109.9552         D2E/DX2 =    0.0518             !
 ! A120  A(61,60,69)           108.7957         D2E/DX2 =    0.1274             !
 ! A121  A(62,60,63)           110.1531         D2E/DX2 =    0.0532             !
 ! A122  A(62,60,69)           109.2878         D2E/DX2 =    0.1264             !
 ! A123  A(63,60,69)           108.4988         D2E/DX2 =    0.1254             !
 ! A124  A(65,64,66)           110.7496         D2E/DX2 =    0.0542             !
 ! A125  A(65,64,67)           110.4101         D2E/DX2 =    0.0516             !
 ! A126  A(65,64,69)           109.1754         D2E/DX2 =    0.127              !
 ! A127  A(66,64,67)           110.196          D2E/DX2 =    0.0527             !
 ! A128  A(66,64,69)           107.7097         D2E/DX2 =    0.1306             !
 ! A129  A(67,64,69)           108.5251         D2E/DX2 =    0.1273             !
 ! A130  A(38,68,44)           106.9944         D2E/DX2 =    0.0386             !
 ! A131  A(38,68,48)           112.3567         D2E/DX2 =    0.0422             !
 ! A132  A(38,68,52)           109.808          D2E/DX2 =    0.0364             !
 ! A133  A(44,68,48)           108.6857         D2E/DX2 =    0.0365             !
 ! A134  A(44,68,52)           110.1006         D2E/DX2 =    0.035              !
 ! A135  A(48,68,52)           108.8693         D2E/DX2 =    0.0362             !
 ! A136  A(41,69,56)           107.2851         D2E/DX2 =    0.042              !
 ! A137  A(41,69,60)           111.0583         D2E/DX2 =    0.0366             !
 ! A138  A(41,69,64)           109.8617         D2E/DX2 =    0.0391             !
 ! A139  A(56,69,60)           109.5309         D2E/DX2 =    0.0349             !
 ! A140  A(56,69,64)           108.6574         D2E/DX2 =    0.0345             !
 ! A141  A(60,69,64)           110.366          D2E/DX2 =    0.0355             !
 ! A142  A(71,70,72)           120.9957         D2E/DX2 =    0.0465             !
 ! A143  A(71,70,73)           119.1121         D2E/DX2 =    0.048              !
 ! A144  A(72,70,73)           119.8546         D2E/DX2 =    0.0661             !
 ! A145  A(39,71,70)            88.5558         D2E/DX2 =    0.16               !
 ! A146  A(39,71,88)            84.031          D2E/DX2 =    0.16               !
 ! A147  A(70,71,88)           122.7389         D2E/DX2 =    0.014              !
 ! A148  A(46,72,70)           103.555          D2E/DX2 =    0.16               !
 ! A149  A(46,72,85)           130.9811         D2E/DX2 =    0.16               !
 ! A150  A(46,72,92)            70.5014         D2E/DX2 =    0.16               !
 ! A151  A(70,72,85)           106.1319         D2E/DX2 =    0.0292             !
 ! A152  A(70,72,92)           106.2196         D2E/DX2 =    0.0385             !
 ! A153  A(85,72,92)           133.5222         D2E/DX2 =    0.0585             !
 ! A154  A(50,73,70)            87.7235         D2E/DX2 =    0.16               !
 ! A155  A(50,73,79)           105.1674         D2E/DX2 =    0.16               !
 ! A156  A(50,73,83)           130.6265         D2E/DX2 =    0.16               !
 ! A157  A(70,73,79)           114.0315         D2E/DX2 =    0.0345             !
 ! A158  A(70,73,83)           111.1725         D2E/DX2 =    0.0473             !
 ! A159  A(79,73,83)           107.1692         D2E/DX2 =    0.0144             !
 ! A160  A(79,78,80)           102.1311         D2E/DX2 =    0.068              !
 ! A161  A(37,79,73)            85.4019         D2E/DX2 =    0.16               !
 ! A162  A(37,79,78)            93.3968         D2E/DX2 =    0.16               !
 ! A163  A(59,81,82)           110.6836         D2E/DX2 =    0.16               !
 ! A164  A(59,81,83)            99.4766         D2E/DX2 =    0.16               !
 ! A165  A(82,81,83)           103.1598         D2E/DX2 =    0.1801             !
 ! A166  A(85,84,86)           101.589          D2E/DX2 =    0.0521             !
 ! A167  A(84,86,87)           154.1168         D2E/DX2 =    0.0408             !
 ! A168  A(86,87,88)            85.0354         D2E/DX2 =    0.0262             !
 ! A169  A(86,87,89)            98.6569         D2E/DX2 =    0.0145             !
 ! A170  A(88,87,89)           105.6083         D2E/DX2 =    0.0628             !
 ! A171  A(91,90,92)           101.6278         D2E/DX2 =    0.0844             !
 ! A172  L(44,46,72,8,-1)      167.7337         D2E/DX2 =    0.0023             !
 ! A173  L(48,50,73,8,-1)      173.0565         D2E/DX2 =    0.0023             !
 ! A174  L(73,79,78,37,-1)     178.7986         D2E/DX2 =    0.0122             !
 ! A175  L(73,83,81,27,-1)     180.5207         D2E/DX2 =    0.0124             !
 ! A176  L(72,85,84,1,-1)      166.1927         D2E/DX2 =    0.013              !
 ! A177  L(71,88,87,1,-1)      174.4775         D2E/DX2 =    0.0102             !
 ! A178  L(72,92,90,44,-1)     176.2213         D2E/DX2 =    0.0124             !
 ! A179  L(44,46,72,8,-2)      188.4209         D2E/DX2 =    0.0023             !
 ! A180  L(48,50,73,8,-2)      181.8733         D2E/DX2 =    0.0023             !
 ! A181  L(73,79,78,37,-2)     174.5457         D2E/DX2 =    0.0122             !
 ! A182  L(73,83,81,27,-2)     176.8107         D2E/DX2 =    0.0124             !
 ! A183  L(72,85,84,1,-2)      180.0084         D2E/DX2 =    0.013              !
 ! A184  L(71,88,87,1,-2)      184.4801         D2E/DX2 =    0.0102             !
 ! A185  L(72,92,90,44,-2)     170.2585         D2E/DX2 =    0.0124             !
 ! D1    D(3,1,2,6)           -177.4032         D2E/DX2 =    0.0134             !
 ! D2    D(3,1,2,7)            -60.5461         D2E/DX2 =    0.0129             !
 ! D3    D(3,1,2,18)            56.533          D2E/DX2 =    0.0135             !
 ! D4    D(4,1,2,6)            -57.0517         D2E/DX2 =    0.0132             !
 ! D5    D(4,1,2,7)             59.8054         D2E/DX2 =    0.013              !
 ! D6    D(4,1,2,18)           176.8845         D2E/DX2 =    0.0137             !
 ! D7    D(5,1,2,6)             62.586          D2E/DX2 =    0.0132             !
 ! D8    D(5,1,2,7)            179.4431         D2E/DX2 =    0.0126             !
 ! D9    D(5,1,2,18)           -63.4778         D2E/DX2 =    0.0136             !
 ! D10   D(1,2,6,8)            179.7113         D2E/DX2 =    0.019              !
 ! D11   D(1,2,6,76)            57.5383         D2E/DX2 =    0.0167             !
 ! D12   D(1,2,6,77)           -57.4554         D2E/DX2 =    0.0164             !
 ! D13   D(7,2,6,8)             62.4276         D2E/DX2 =    0.0135             !
 ! D14   D(7,2,6,76)           -59.7453         D2E/DX2 =    0.0139             !
 ! D15   D(7,2,6,77)          -174.7391         D2E/DX2 =    0.0134             !
 ! D16   D(18,2,6,8)           -54.7191         D2E/DX2 =    0.0153             !
 ! D17   D(18,2,6,76)         -176.892          D2E/DX2 =    0.0168             !
 ! D18   D(18,2,6,77)           68.1143         D2E/DX2 =    0.0161             !
 ! D19   D(1,2,18,19)           62.9796         D2E/DX2 =    0.0146             !
 ! D20   D(1,2,18,20)         -119.1258         D2E/DX2 =    0.0145             !
 ! D21   D(6,2,18,19)          -62.213          D2E/DX2 =    0.0142             !
 ! D22   D(6,2,18,20)          115.6816         D2E/DX2 =    0.0136             !
 ! D23   D(7,2,18,19)         -179.4398         D2E/DX2 =    0.0102             !
 ! D24   D(7,2,18,20)           -1.5452         D2E/DX2 =    0.0095             !
 ! D25   D(2,6,8,9)            -47.4305         D2E/DX2 =    0.0149             !
 ! D26   D(2,6,8,10)            68.4292         D2E/DX2 =    0.016              !
 ! D27   D(2,6,8,11)          -168.9689         D2E/DX2 =    0.016              !
 ! D28   D(76,6,8,9)            73.7156         D2E/DX2 =    0.0159             !
 ! D29   D(76,6,8,10)         -170.4248         D2E/DX2 =    0.0152             !
 ! D30   D(76,6,8,11)          -47.8229         D2E/DX2 =    0.0153             !
 ! D31   D(77,6,8,9)          -170.3673         D2E/DX2 =    0.0149             !
 ! D32   D(77,6,8,10)          -54.5076         D2E/DX2 =    0.0157             !
 ! D33   D(77,6,8,11)           68.0943         D2E/DX2 =    0.0158             !
 ! D34   D(6,8,11,12)         -175.7232         D2E/DX2 =    0.0154             !
 ! D35   D(6,8,11,74)          -53.2274         D2E/DX2 =    0.0158             !
 ! D36   D(6,8,11,75)           62.7661         D2E/DX2 =    0.0152             !
 ! D37   D(9,8,11,12)           62.4405         D2E/DX2 =    0.0146             !
 ! D38   D(9,8,11,74)         -175.0637         D2E/DX2 =    0.0149             !
 ! D39   D(9,8,11,75)          -59.0703         D2E/DX2 =    0.0158             !
 ! D40   D(10,8,11,12)         -53.7348         D2E/DX2 =    0.0157             !
 ! D41   D(10,8,11,74)          68.761          D2E/DX2 =    0.0157             !
 ! D42   D(10,8,11,75)        -175.2455         D2E/DX2 =    0.0154             !
 ! D43   D(8,11,12,13)         -48.6765         D2E/DX2 =    0.0136             !
 ! D44   D(8,11,12,14)        -166.0442         D2E/DX2 =    0.0191             !
 ! D45   D(8,11,12,28)          67.7516         D2E/DX2 =    0.0157             !
 ! D46   D(74,11,12,13)       -171.8287         D2E/DX2 =    0.0134             !
 ! D47   D(74,11,12,14)         70.8037         D2E/DX2 =    0.0164             !
 ! D48   D(74,11,12,28)        -55.4005         D2E/DX2 =    0.0162             !
 ! D49   D(75,11,12,13)         73.1727         D2E/DX2 =    0.0139             !
 ! D50   D(75,11,12,14)        -44.195          D2E/DX2 =    0.0167             !
 ! D51   D(75,11,12,28)       -170.3992         D2E/DX2 =    0.0168             !
 ! D52   D(11,12,14,15)       -176.1057         D2E/DX2 =    0.0135             !
 ! D53   D(11,12,14,16)        -55.2184         D2E/DX2 =    0.0134             !
 ! D54   D(11,12,14,17)         63.7756         D2E/DX2 =    0.0134             !
 ! D55   D(13,12,14,15)         66.7285         D2E/DX2 =    0.0129             !
 ! D56   D(13,12,14,16)       -172.3843         D2E/DX2 =    0.0127             !
 ! D57   D(13,12,14,17)        -53.3902         D2E/DX2 =    0.0131             !
 ! D58   D(28,12,14,15)        -51.663          D2E/DX2 =    0.0136             !
 ! D59   D(28,12,14,16)         69.2242         D2E/DX2 =    0.0137             !
 ! D60   D(28,12,14,17)       -171.7817         D2E/DX2 =    0.0138             !
 ! D61   D(11,12,28,29)         84.3461         D2E/DX2 =    0.0148             !
 ! D62   D(11,12,28,30)        -90.4386         D2E/DX2 =    0.0154             !
 ! D63   D(13,12,28,29)       -159.0065         D2E/DX2 =    0.0101             !
 ! D64   D(13,12,28,30)         26.2087         D2E/DX2 =    0.0097             !
 ! D65   D(14,12,28,29)        -40.2232         D2E/DX2 =    0.0146             !
 ! D66   D(14,12,28,30)        144.992          D2E/DX2 =    0.0148             !
 ! D67   D(2,18,19,21)         177.081          D2E/DX2 =    0.0098             !
 ! D68   D(2,18,19,22)          -0.4024         D2E/DX2 =    0.0084             !
 ! D69   D(20,18,19,21)         -0.8663         D2E/DX2 =    0.0078             !
 ! D70   D(20,18,19,22)       -178.3497         D2E/DX2 =    0.0072             !
 ! D71   D(2,18,20,23)        -176.9478         D2E/DX2 =    0.01               !
 ! D72   D(2,18,20,24)           0.4497         D2E/DX2 =    0.0083             !
 ! D73   D(19,18,20,23)          1.0167         D2E/DX2 =    0.0079             !
 ! D74   D(19,18,20,24)        178.4143         D2E/DX2 =    0.0071             !
 ! D75   D(18,19,21,25)          0.3824         D2E/DX2 =    0.0088             !
 ! D76   D(18,19,21,26)       -175.658          D2E/DX2 =    0.009              !
 ! D77   D(22,19,21,25)        177.8957         D2E/DX2 =    0.0088             !
 ! D78   D(22,19,21,26)          1.8553         D2E/DX2 =    0.0092             !
 ! D79   D(18,20,23,25)         -0.6868         D2E/DX2 =    0.0089             !
 ! D80   D(18,20,23,27)        174.6421         D2E/DX2 =    0.0088             !
 ! D81   D(24,20,23,25)       -178.0889         D2E/DX2 =    0.0087             !
 ! D82   D(24,20,23,27)         -2.7599         D2E/DX2 =    0.009              !
 ! D83   D(19,21,25,23)         -0.0224         D2E/DX2 =    0.0083             !
 ! D84   D(19,21,25,41)       -173.1316         D2E/DX2 =    0.01               !
 ! D85   D(26,21,25,23)        175.9985         D2E/DX2 =    0.0076             !
 ! D86   D(26,21,25,41)          2.8893         D2E/DX2 =    0.0087             !
 ! D87   D(20,23,25,21)          0.1719         D2E/DX2 =    0.0082             !
 ! D88   D(20,23,25,41)        173.1831         D2E/DX2 =    0.0103             !
 ! D89   D(27,23,25,21)       -175.1329         D2E/DX2 =    0.0072             !
 ! D90   D(27,23,25,41)         -2.1217         D2E/DX2 =    0.0084             !
 ! D91   D(21,25,41,42)         18.5329         D2E/DX2 =    0.0118             !
 ! D92   D(21,25,41,43)        138.8104         D2E/DX2 =    0.0087             !
 ! D93   D(21,25,41,69)        -99.9855         D2E/DX2 =    0.0188             !
 ! D94   D(23,25,41,42)       -154.3806         D2E/DX2 =    0.0125             !
 ! D95   D(23,25,41,43)        -34.1031         D2E/DX2 =    0.0086             !
 ! D96   D(23,25,41,69)         87.1011         D2E/DX2 =    0.0188             !
 ! D97   D(12,28,29,31)       -172.6893         D2E/DX2 =    0.0099             !
 ! D98   D(12,28,29,32)          5.4177         D2E/DX2 =    0.0085             !
 ! D99   D(30,28,29,31)          2.1937         D2E/DX2 =    0.008              !
 ! D100  D(30,28,29,32)       -179.6994         D2E/DX2 =    0.0072             !
 ! D101  D(12,28,30,33)        171.1484         D2E/DX2 =    0.0103             !
 ! D102  D(12,28,30,34)         -5.3578         D2E/DX2 =    0.0085             !
 ! D103  D(29,28,30,33)         -3.8457         D2E/DX2 =    0.0083             !
 ! D104  D(29,28,30,34)        179.6482         D2E/DX2 =    0.0076             !
 ! D105  D(28,29,31,35)          0.7932         D2E/DX2 =    0.0089             !
 ! D106  D(28,29,31,36)        177.6516         D2E/DX2 =    0.0088             !
 ! D107  D(32,29,31,35)       -177.3371         D2E/DX2 =    0.0091             !
 ! D108  D(32,29,31,36)         -0.4787         D2E/DX2 =    0.0091             !
 ! D109  D(28,30,33,35)          2.5147         D2E/DX2 =    0.009              !
 ! D110  D(28,30,33,37)       -173.3336         D2E/DX2 =    0.009              !
 ! D111  D(34,30,33,35)        179.0843         D2E/DX2 =    0.0088             !
 ! D112  D(34,30,33,37)          3.236          D2E/DX2 =    0.0093             !
 ! D113  D(29,31,35,33)         -2.1791         D2E/DX2 =    0.0089             !
 ! D114  D(29,31,35,38)        169.6224         D2E/DX2 =    0.0099             !
 ! D115  D(36,31,35,33)       -179.0207         D2E/DX2 =    0.0076             !
 ! D116  D(36,31,35,38)         -7.2192         D2E/DX2 =    0.0084             !
 ! D117  D(30,33,35,31)          0.5497         D2E/DX2 =    0.0087             !
 ! D118  D(30,33,35,38)       -171.3567         D2E/DX2 =    0.0096             !
 ! D119  D(37,33,35,31)        176.3319         D2E/DX2 =    0.009              !
 ! D120  D(37,33,35,38)          4.4255         D2E/DX2 =    0.0089             !
 ! D121  D(30,33,37,79)         27.7752         D2E/DX2 =    0.0037             !
 ! D122  D(35,33,37,79)       -148.0744         D2E/DX2 =    0.0037             !
 ! D123  D(31,35,38,39)       -131.9364         D2E/DX2 =    0.0176             !
 ! D124  D(31,35,38,40)        -11.9305         D2E/DX2 =    0.0097             !
 ! D125  D(31,35,38,68)        108.011          D2E/DX2 =    0.0232             !
 ! D126  D(33,35,38,39)         39.7602         D2E/DX2 =    0.0182             !
 ! D127  D(33,35,38,40)        159.7662         D2E/DX2 =    0.0109             !
 ! D128  D(33,35,38,68)        -80.2924         D2E/DX2 =    0.0246             !
 ! D129  D(33,37,79,73)        154.9954         D2E/DX2 =    0.0023             !
 ! D130  D(33,37,79,78)        -19.5504         D2E/DX2 =    0.0023             !
 ! D131  D(35,38,39,71)        -16.6322         D2E/DX2 =    0.0024             !
 ! D132  D(40,38,39,71)       -137.679          D2E/DX2 =    0.0024             !
 ! D133  D(68,38,39,71)        109.6747         D2E/DX2 =    0.0024             !
 ! D134  D(35,38,68,44)        173.9459         D2E/DX2 =    0.0181             !
 ! D135  D(35,38,68,48)         54.7412         D2E/DX2 =    0.0161             !
 ! D136  D(35,38,68,52)        -66.5793         D2E/DX2 =    0.0151             !
 ! D137  D(39,38,68,44)         52.9041         D2E/DX2 =    0.0165             !
 ! D138  D(39,38,68,48)        -66.3006         D2E/DX2 =    0.0161             !
 ! D139  D(39,38,68,52)        172.3789         D2E/DX2 =    0.013              !
 ! D140  D(40,38,68,44)        -62.8455         D2E/DX2 =    0.0172             !
 ! D141  D(40,38,68,48)        177.9498         D2E/DX2 =    0.0157             !
 ! D142  D(40,38,68,52)         56.6293         D2E/DX2 =    0.0129             !
 ! D143  D(38,39,71,70)       -111.7207         D2E/DX2 =    0.0023             !
 ! D144  D(38,39,71,88)        125.1474         D2E/DX2 =    0.0023             !
 ! D145  D(25,41,69,56)        176.8104         D2E/DX2 =    0.0172             !
 ! D146  D(25,41,69,60)        -63.52           D2E/DX2 =    0.0137             !
 ! D147  D(25,41,69,64)         58.8643         D2E/DX2 =    0.0138             !
 ! D148  D(42,41,69,56)         55.3183         D2E/DX2 =    0.0159             !
 ! D149  D(42,41,69,60)        174.988          D2E/DX2 =    0.0122             !
 ! D150  D(42,41,69,64)        -62.6277         D2E/DX2 =    0.0136             !
 ! D151  D(43,41,69,56)        -59.4329         D2E/DX2 =    0.0148             !
 ! D152  D(43,41,69,60)         60.2367         D2E/DX2 =    0.0117             !
 ! D153  D(43,41,69,64)       -177.379          D2E/DX2 =    0.0137             !
 ! D154  D(45,44,72,70)        114.2116         D2E/DX2 =    0.0023             !
 ! D155  D(45,44,72,85)       -122.8304         D2E/DX2 =    0.0023             !
 ! D156  D(45,44,72,92)          9.9861         D2E/DX2 =    0.0023             !
 ! D157  D(47,44,72,70)       -116.2368         D2E/DX2 =    0.0023             !
 ! D158  D(47,44,72,85)          6.7213         D2E/DX2 =    0.0023             !
 ! D159  D(47,44,72,92)        139.5377         D2E/DX2 =    0.0023             !
 ! D160  D(68,44,72,70)         -0.5695         D2E/DX2 =    0.0023             !
 ! D161  D(68,44,72,85)        122.3885         D2E/DX2 =    0.0023             !
 ! D162  D(68,44,72,92)       -104.795          D2E/DX2 =    0.0023             !
 ! D163  D(45,44,68,38)       -177.3857         D2E/DX2 =    0.0178             !
 ! D164  D(45,44,68,48)        -55.8363         D2E/DX2 =    0.017              !
 ! D165  D(45,44,68,52)         63.3282         D2E/DX2 =    0.015              !
 ! D166  D(46,44,68,38)        -58.002          D2E/DX2 =    0.018              !
 ! D167  D(46,44,68,48)         63.5474         D2E/DX2 =    0.018              !
 ! D168  D(46,44,68,52)       -177.2881         D2E/DX2 =    0.016              !
 ! D169  D(47,44,68,38)         62.2108         D2E/DX2 =    0.018              !
 ! D170  D(47,44,68,48)       -176.2398         D2E/DX2 =    0.017              !
 ! D171  D(47,44,68,52)        -57.0753         D2E/DX2 =    0.0154             !
 ! D172  D(49,48,73,70)        120.8619         D2E/DX2 =    0.0023             !
 ! D173  D(49,48,73,79)          6.6781         D2E/DX2 =    0.0023             !
 ! D174  D(49,48,73,83)       -121.8706         D2E/DX2 =    0.0023             !
 ! D175  D(51,48,73,70)       -117.4729         D2E/DX2 =    0.0023             !
 ! D176  D(51,48,73,79)        128.3434         D2E/DX2 =    0.0023             !
 ! D177  D(51,48,73,83)         -0.2053         D2E/DX2 =    0.0023             !
 ! D178  D(68,48,73,70)          3.4773         D2E/DX2 =    0.0023             !
 ! D179  D(68,48,73,79)       -110.7064         D2E/DX2 =    0.0023             !
 ! D180  D(68,48,73,83)        120.7449         D2E/DX2 =    0.0023             !
 ! D181  D(49,48,68,38)        -66.8635         D2E/DX2 =    0.0168             !
 ! D182  D(49,48,68,44)        174.9258         D2E/DX2 =    0.0165             !
 ! D183  D(49,48,68,52)         54.9928         D2E/DX2 =    0.0146             !
 ! D184  D(50,48,68,38)         53.9058         D2E/DX2 =    0.0178             !
 ! D185  D(50,48,68,44)        -64.3049         D2E/DX2 =    0.0171             !
 ! D186  D(50,48,68,52)        175.7621         D2E/DX2 =    0.0157             !
 ! D187  D(51,48,68,38)        173.3113         D2E/DX2 =    0.0163             !
 ! D188  D(51,48,68,44)         55.1005         D2E/DX2 =    0.016              !
 ! D189  D(51,48,68,52)        -64.8325         D2E/DX2 =    0.0143             !
 ! D190  D(53,52,68,38)        -59.8715         D2E/DX2 =    0.0166             !
 ! D191  D(53,52,68,44)         57.6848         D2E/DX2 =    0.0161             !
 ! D192  D(53,52,68,48)        176.7371         D2E/DX2 =    0.0156             !
 ! D193  D(54,52,68,38)         59.9604         D2E/DX2 =    0.0171             !
 ! D194  D(54,52,68,44)        177.5167         D2E/DX2 =    0.0162             !
 ! D195  D(54,52,68,48)        -63.431          D2E/DX2 =    0.0154             !
 ! D196  D(55,52,68,38)       -179.8444         D2E/DX2 =    0.0167             !
 ! D197  D(55,52,68,44)        -62.2882         D2E/DX2 =    0.0161             !
 ! D198  D(55,52,68,48)         56.7642         D2E/DX2 =    0.0152             !
 ! D199  D(57,56,59,81)        126.5165         D2E/DX2 =    0.0023             !
 ! D200  D(58,56,59,81)          3.6263         D2E/DX2 =    0.0023             !
 ! D201  D(69,56,59,81)       -114.0455         D2E/DX2 =    0.0023             !
 ! D202  D(57,56,69,41)        175.2122         D2E/DX2 =    0.0174             !
 ! D203  D(57,56,69,60)         54.5703         D2E/DX2 =    0.015              !
 ! D204  D(57,56,69,64)        -66.0614         D2E/DX2 =    0.016              !
 ! D205  D(58,56,69,41)        -65.3528         D2E/DX2 =    0.0174             !
 ! D206  D(58,56,69,60)        174.0053         D2E/DX2 =    0.0154             !
 ! D207  D(58,56,69,64)         53.3736         D2E/DX2 =    0.0165             !
 ! D208  D(59,56,69,41)         53.8276         D2E/DX2 =    0.0183             !
 ! D209  D(59,56,69,60)        -66.8142         D2E/DX2 =    0.016              !
 ! D210  D(59,56,69,64)        172.554          D2E/DX2 =    0.0166             !
 ! D211  D(56,59,81,82)        -44.674          D2E/DX2 =    0.0023             !
 ! D212  D(56,59,81,83)         63.3696         D2E/DX2 =    0.0023             !
 ! D213  D(61,60,69,41)       -177.8662         D2E/DX2 =    0.0169             !
 ! D214  D(61,60,69,56)        -59.5453         D2E/DX2 =    0.0163             !
 ! D215  D(61,60,69,64)         60.0424         D2E/DX2 =    0.0145             !
 ! D216  D(62,60,69,41)         61.8709         D2E/DX2 =    0.0172             !
 ! D217  D(62,60,69,56)       -179.8082         D2E/DX2 =    0.0166             !
 ! D218  D(62,60,69,64)        -60.2205         D2E/DX2 =    0.0146             !
 ! D219  D(63,60,69,41)        -58.2608         D2E/DX2 =    0.0168             !
 ! D220  D(63,60,69,56)         60.06           D2E/DX2 =    0.0162             !
 ! D221  D(63,60,69,64)        179.6477         D2E/DX2 =    0.0147             !
 ! D222  D(65,64,69,41)        -62.321          D2E/DX2 =    0.017              !
 ! D223  D(65,64,69,56)       -179.4126         D2E/DX2 =    0.0169             !
 ! D224  D(65,64,69,60)         60.4728         D2E/DX2 =    0.0145             !
 ! D225  D(66,64,69,41)         57.9973         D2E/DX2 =    0.0179             !
 ! D226  D(66,64,69,56)        -59.0943         D2E/DX2 =    0.0171             !
 ! D227  D(66,64,69,60)       -179.2089         D2E/DX2 =    0.0152             !
 ! D228  D(67,64,69,41)        177.2861         D2E/DX2 =    0.0169             !
 ! D229  D(67,64,69,56)         60.1945         D2E/DX2 =    0.0164             !
 ! D230  D(67,64,69,60)        -59.9201         D2E/DX2 =    0.0142             !
 ! D231  D(72,70,71,39)        -71.6525         D2E/DX2 =    0.0329             !
 ! D232  D(72,70,71,88)         10.3067         D2E/DX2 =    0.0062             !
 ! D233  D(73,70,71,39)        106.1137         D2E/DX2 =    0.0329             !
 ! D234  D(73,70,71,88)       -171.9271         D2E/DX2 =    0.0082             !
 ! D235  D(71,70,72,46)         85.8997         D2E/DX2 =    0.0319             !
 ! D236  D(71,70,72,85)        -54.6329         D2E/DX2 =    0.0069             !
 ! D237  D(71,70,72,92)        159.1946         D2E/DX2 =    0.0069             !
 ! D238  D(73,70,72,46)        -91.8502         D2E/DX2 =    0.0319             !
 ! D239  D(73,70,72,85)        127.6173         D2E/DX2 =    0.0076             !
 ! D240  D(73,70,72,92)        -18.5552         D2E/DX2 =    0.007              !
 ! D241  D(71,70,73,50)        -95.7527         D2E/DX2 =    0.0313             !
 ! D242  D(71,70,73,79)          9.8504         D2E/DX2 =    0.0047             !
 ! D243  D(71,70,73,83)        131.1363         D2E/DX2 =    0.0172             !
 ! D244  D(72,70,73,50)         82.0395         D2E/DX2 =    0.0313             !
 ! D245  D(72,70,73,79)       -172.3573         D2E/DX2 =    0.0032             !
 ! D246  D(72,70,73,83)        -51.0715         D2E/DX2 =    0.0127             !
 ! D247  D(39,71,87,86)        122.8793         D2E/DX2 =    0.0023             !
 ! D248  D(39,71,87,89)         25.8304         D2E/DX2 =    0.0023             !
 ! D249  D(70,71,87,86)         36.9087         D2E/DX2 =    0.0023             !
 ! D250  D(70,71,87,89)        -60.1402         D2E/DX2 =    0.0023             !
 ! D251  D(46,72,84,86)        -54.9897         D2E/DX2 =    0.0023             !
 ! D252  D(70,72,84,86)         65.5641         D2E/DX2 =    0.0023             !
 ! D253  D(92,72,84,86)       -164.0961         D2E/DX2 =    0.0023             !
 ! D254  D(46,72,90,91)        117.2619         D2E/DX2 =    0.0023             !
 ! D255  D(70,72,90,91)         17.3865         D2E/DX2 =    0.0023             !
 ! D256  D(85,72,90,91)       -113.9806         D2E/DX2 =    0.0023             !
 ! D257  D(50,73,79,37)         30.6166         D2E/DX2 =    0.0023             !
 ! D258  D(70,73,79,37)        -63.7312         D2E/DX2 =    0.0023             !
 ! D259  D(83,73,79,37)        172.7877         D2E/DX2 =    0.0023             !
 ! D260  D(50,73,81,59)       -155.6333         D2E/DX2 =    0.0023             !
 ! D261  D(50,73,81,82)        -42.2627         D2E/DX2 =    0.0023             !
 ! D262  D(70,73,81,59)        -50.5881         D2E/DX2 =    0.0023             !
 ! D263  D(70,73,81,82)         62.7825         D2E/DX2 =    0.0023             !
 ! D264  D(79,73,81,59)         74.3886         D2E/DX2 =    0.0023             !
 ! D265  D(79,73,81,82)       -172.2408         D2E/DX2 =    0.0023             !
 ! D266  D(80,78,79,37)         63.4875         D2E/DX2 =    0.0122             !
 ! D267  D(85,84,86,87)        -22.2482         D2E/DX2 =    0.0142             !
 ! D268  D(84,86,87,88)        -12.0056         D2E/DX2 =    0.0175             !
 ! D269  D(84,86,87,89)         93.062          D2E/DX2 =    0.0243             !
 --------------------------------------------------------------------------------
 Trust Radius=3.00D-01 FncErr=1.00D-07 GrdErr=1.00D-06 EigMax=2.50D+02 EigMin=1.00D-04
 Number of steps in this run=    552 maximum allowed number of steps=    552.
 GradGradGradGradGradGradGradGradGradGradGradGradGradGradGradGradGradGrad

 Leave Link  103 at Sat Mar  2 13:14:14 2024, MaxMem=  1342177280 cpu:               1.1 elap:               0.1
 (Enter /packages/apps/gaussian/g16/g16/l202.exe)
 Stoichiometry    C28H54N2O8
 Framework group  C1[X(C28H54N2O8)]
 Deg. of freedom   270
 Full point group                 C1      NOp   1
 Largest Abelian subgroup         C1      NOp   1
 Largest concise Abelian subgroup C1      NOp   1
                         Standard orientation:                         
 ---------------------------------------------------------------------
 Center     Atomic      Atomic             Coordinates (Angstroms)
 Number     Number       Type             X           Y           Z
 ---------------------------------------------------------------------
      1          6           0        3.810043   -4.781466    1.162244
      2          6           0        3.527076   -3.637201    0.185529
      3          1           0        3.264974   -5.682410    0.880011
      4          1           0        4.875219   -5.016951    1.180700
      5          1           0        3.510133   -4.512984    2.176637
      6          6           0        4.347715   -2.390426    0.551617
      7          1           0        3.855134   -3.957310   -0.807618
      8          6           0        4.130137   -1.200428   -0.378898
      9          1           0        4.191362   -1.533960   -1.420235
     10          1           0        3.116873   -0.820312   -0.239321
     11          6           0        5.145395   -0.083341   -0.154364
     12          6           0        4.909422    1.187330   -0.996735
     13          1           0        4.755035    0.870664   -2.032074
     14          6           0        6.143124    2.089324   -0.963326
     15          1           0        5.967506    3.023117   -1.497847
     16          1           0        6.434243    2.334498    0.059628
     17          1           0        6.990763    1.584762   -1.427862
     18          6           0        2.044237   -3.344191    0.087233
     19          6           0        1.317742   -2.898904    1.189916
     20          6           0        1.376663   -3.472260   -1.125734
     21          6           0       -0.023721   -2.575636    1.079939
     22          1           0        1.810899   -2.761761    2.143885
     23          6           0        0.033896   -3.146963   -1.242440
     24          1           0        1.923357   -3.791510   -2.004227
     25          6           0       -0.684858   -2.695918   -0.140438
     26          1           0       -0.543266   -2.165722    1.936630
     27          1           0       -0.435178   -3.173894   -2.216999
     28          6           0        3.641121    1.885592   -0.550407
     29          6           0        3.626042    2.772826    0.523455
     30          6           0        2.424783    1.565498   -1.149351
     31          6           0        2.430752    3.283873    1.008662
     32          1           0        4.550236    3.050301    1.012350
     33          6           0        1.229574    2.045493   -0.648635
     34          1           0        2.393694    0.884178   -1.990459
     35          6           0        1.216735    2.908780    0.443614
     36          1           0        2.445150    3.942489    1.869702
     37          1           0        0.304487    1.687530   -1.074418
     38          6           0       -0.084393    3.266878    1.096247
     39          1           0       -0.706188    2.372766    1.133534
     40          1           0        0.075412    3.636607    2.107262
     41          6           0       -2.093044   -2.197423   -0.280370
     42          1           0       -2.324408   -1.502447    0.519298
     43          1           0       -2.234390   -1.690174   -1.231358
     44          6           0       -2.217760    4.421216    1.152697
     45          1           0       -2.857562    5.150322    0.663708
     46          1           0       -2.689402    3.439241    1.123162
     47          1           0       -2.010754    4.718550    2.178374
     48          6           0       -1.199647    4.026295   -1.018086
     49          1           0       -0.265532    4.059664   -1.569817
     50          1           0       -1.650749    3.038009   -1.101860
     51          1           0       -1.892291    4.775391   -1.392294
     52          6           0       -0.213798    5.647490    0.489313
     53          1           0       -0.059638    5.909809    1.533121
     54          1           0        0.745103    5.555445   -0.013836
     55          1           0       -0.822372    6.405467    0.002930
     56          6           0       -4.500286   -2.547802   -0.280556
     57          1           0       -5.287044   -3.299219   -0.309065
     58          1           0       -4.591775   -1.929071    0.608969
     59          1           0       -4.521525   -1.919124   -1.171253
     60          6           0       -3.071147   -4.224843   -1.314929
     61          1           0       -3.887018   -4.940008   -1.242234
     62          1           0       -2.116873   -4.739013   -1.249360
     63          1           0       -3.138772   -3.678941   -2.252463
     64          6           0       -3.104478   -3.962923    1.108455
     65          1           0       -2.147807   -4.471940    1.181589
     66          1           0       -3.205325   -3.217623    1.893771
     67          1           0       -3.920637   -4.679595    1.163923
     68          7           0       -0.919047    4.344559    0.416134
     69          7           0       -3.183548   -3.256987   -0.198022
     70          6           0       -2.241148    0.943397   -0.010124
     71          8           0       -1.193890    0.468755    0.550978
     72          8           0       -3.230862    1.374268    0.690503
     73          8           0       -2.280453    1.027572   -1.298283
     74          1           0        5.156028    0.198661    0.903637
     75          1           0        6.145798   -0.463873   -0.381871
     76          1           0        5.405016   -2.672794    0.547262
     77          1           0        4.117039   -2.091614    1.579030
     78          8           0       -0.224932   -0.275561   -2.461877
     79          1           0       -0.986722    0.227493   -2.090251
     80          1           0        0.207919   -0.598475   -1.671165
     81          8           0       -4.591226   -0.016327   -2.223508
     82          1           0       -5.245694    0.563649   -1.831256
     83          1           0       -3.738909    0.368884   -1.918290
     84          8           0       -3.738595   -0.806138    2.333845
     85          1           0       -3.700072    0.010141    1.793279
     86          1           0       -2.897646   -0.762510    2.812314
     87          8           0       -1.062074   -0.171197    3.077233
     88          1           0       -1.119819    0.147225    2.130239
     89          1           0       -1.235230    0.597612    3.618067
     90          8           0       -4.500068    3.074163   -1.031189
     91          1           0       -4.092429    2.745831   -1.833203
     92          1           0       -4.142461    2.452064   -0.357934
 ---------------------------------------------------------------------
 Rotational constants (GHZ):           0.0964196           0.0855710           0.0534298
 Leave Link  202 at Sat Mar  2 13:14:14 2024, MaxMem=  1342177280 cpu:               2.6 elap:               0.2
 (Enter /packages/apps/gaussian/g16/g16/l301.exe)
 Standard basis: 6-311+G(2d,2p) (5D, 7F)
 Ernie: Thresh=  0.10000D-02 Tol=  0.10000D-05 Strict=F.
 There are  1588 symmetry adapted cartesian basis functions of A   symmetry.
 There are  1512 symmetry adapted basis functions of A   symmetry.
  1512 basis functions,  2190 primitive gaussians,  1588 cartesian basis functions
   150 alpha electrons      150 beta electrons
       nuclear repulsion energy      5063.1896893779 Hartrees.
 IExCor= 4639 DFT=T Ex+Corr=wB97XD ExCW=0 ScaHFX=  1.000000
 ScaDFX=  1.000000  1.000000  1.000000  1.000000 ScalE2=  1.000000  1.000000
 IRadAn=      5 IRanWt=     -1 IRanGd=            0 ICorTp=0 IEmpDi=121
 HFx  wShort=  0.000000 wLong=  0.200000 cFull=  0.222036 cShort=  0.000000 cLong=  0.777964
 DFx  wShort=  0.000000 wLong=  0.200000 cFull=  0.000000 cShort=  0.000000 cLong=  1.000000
 NAtoms=   92 NActive=   92 NUniq=   92 SFac= 1.00D+00 NAtFMM=   60 NAOKFM=T Big=T
 Integral buffers will be    131072 words long.
 Raffenetti 2 integral format.
 Two-electron integral symmetry is turned on.
 R6Disp:  Grimme-D2 Dispersion energy=       -0.1054507994 Hartrees.
 Nuclear repulsion after empirical dispersion term =     5063.0842385785 Hartrees.
 Leave Link  301 at Sat Mar  2 13:14:15 2024, MaxMem=  1342177280 cpu:               1.4 elap:               0.1
 (Enter /packages/apps/gaussian/g16/g16/l302.exe)
 NPDir=0 NMtPBC=     1 NCelOv=     1 NCel=       1 NClECP=     1 NCelD=      1
         NCelK=      1 NCelE2=     1 NClLst=     1 CellRange=     0.0.
 One-electron integrals computed using PRISM.
 One-electron integral symmetry used in STVInt
 NBasis=  1512 RedAO= T EigKep=  1.04D-06  NBF=  1512
 NBsUse=  1504 1.00D-06 EigRej=  8.24D-07 NBFU=  1504
 Precomputing XC quadrature grid using
 IXCGrd= 4 IRadAn=           5 IRanWt=          -1 IRanGd=           0 AccXCQ= 0.00D+00.
 Generated NRdTot=       0 NPtTot=           0 NUsed=           0 NTot=          32
 NSgBfM=  1484  1484  1484  1484  1484 MxSgAt=    92 MxSgA2=    92.
 Leave Link  302 at Sat Mar  2 13:14:22 2024, MaxMem=  1342177280 cpu:             138.5 elap:               7.5
 (Enter /packages/apps/gaussian/g16/g16/l303.exe)
 DipDrv:  MaxL=1.
 Leave Link  303 at Sat Mar  2 13:14:23 2024, MaxMem=  1342177280 cpu:               7.0 elap:               0.5
 (Enter /packages/apps/gaussian/g16/g16/l401.exe)
 SCF restart from the checkpoint file:  "5water-v2.chk"
 B after Tr=     0.000000    0.000000    0.000000
         Rot=    0.999989    0.000891    0.000714   -0.004559 Ang=   0.54 deg.
 Guess basis will be translated and rotated to current coordinates.
 JPrj=2 DoOrth=T DoCkMO=T.
 Leave Link  401 at Sat Mar  2 13:14:32 2024, MaxMem=  1342177280 cpu:             160.2 elap:               9.0
 (Enter /packages/apps/gaussian/g16/g16/l502.exe)
 Integral symmetry usage will be decided dynamically.
 Closed shell SCF:
 Using DIIS extrapolation, IDIIS=  1040.
 NGot=  1342177280 LenX=  1337087432 LenY=  1334564100
 Requested convergence on RMS density matrix=1.00D-08 within 128 cycles.
 Requested convergence on MAX density matrix=1.00D-06.
 Requested convergence on             energy=1.00D-06.
 No special actions if energy rises.
 Fock matrices will be formed incrementally for  20 cycles.

 Cycle   1  Pass 1  IDiag  1:
 FoFJK:  IHMeth= 1 ICntrl=       0 DoSepK=T KAlg= 0 I1Cent=           0 FoldK=F
 IRaf=         1 NMat=       1 IRICut=       1 DoRegI=T DoRafI=F ISym2E= 0 IDoP0=0 IntGTp=1.
 FoFCou: FMM=T IPFlag=           0 FMFlag=      100000 FMFlg1=        2001
         NFxFlg=           0 DoJE=T BraDBF=F KetDBF=F FulRan=T
         wScrn=  0.000000 ICntrl=       500 IOpCl=  0 I1Cent=           0 NGrid=           0
         NMat0=    1 NMatS0=      1 NMatT0=    0 NMatD0=    1 NMtDS0=    0 NMtDT0=    0
 Symmetry not used in FoFCou.
[...]
 Alpha virt. eigenvalues --    1.87124   1.87755   1.88257   1.88462   1.89210
 Alpha virt. eigenvalues --    1.89275   1.89803   1.90251   1.90752   1.91278
 Alpha virt. eigenvalues --    1.91452   1.92150   1.92816   1.93467   1.93734
 Alpha virt. eigenvalues --    1.94150   1.94657   1.95490   1.95723   1.96453
 Alpha virt. eigenvalues --    1.96849   1.97205   1.97347   1.98093   1.98437
 Alpha virt. eigenvalues --    1.98667   1.99460   2.00012   2.00381   2.01169
 Alpha virt. eigenvalues --    2.01514   2.02900   2.03594   2.04659   2.04946
 Alpha virt. eigenvalues --    2.05379   2.06030   2.06305   2.06744   2.07538
 Alpha virt. eigenvalues --    2.08231   2.08769   2.09124   2.10217   2.10790
 Alpha virt. eigenvalues --    2.11853   2.12441   2.12748   2.13498   2.14384
 Alpha virt. eigenvalues --    2.14619   2.15562   2.16918   2.17374   2.17888
 Alpha virt. eigenvalues --    2.19147   2.19490   2.20093   2.21549   2.22903
 Alpha virt. eigenvalues --    2.23150   2.24129   2.25073   2.25800   2.26207
 Alpha virt. eigenvalues --    2.27464   2.27691   2.29289   2.30714   2.30920
 Alpha virt. eigenvalues --    2.32616   2.36236   2.40122   2.40608   2.41094
 Alpha virt. eigenvalues --    2.44082   2.46957   2.48950   2.49766   2.50771
 Alpha virt. eigenvalues --    2.52078   2.52785   2.53626   2.54282   2.55677
 Alpha virt. eigenvalues --    2.61853   2.63151   2.67701   2.68553   2.70017
 Alpha virt. eigenvalues --    2.74055   2.74743   2.77419   2.80443   2.82480
 Alpha virt. eigenvalues --    2.84651   2.85496   2.85802   2.86978   2.87517
 Alpha virt. eigenvalues --    2.88203   2.88471   2.89587   2.90565   2.91100
 Alpha virt. eigenvalues --    2.93243   2.94086   2.94988   2.96003   2.96420
 Alpha virt. eigenvalues --    2.97275   2.97772   2.98189   2.98788   2.98974
 Alpha virt. eigenvalues --    2.99968   3.00313   3.01083   3.01438   3.01974
 Alpha virt. eigenvalues --    3.02147   3.02709   3.03139   3.03715   3.04148
 Alpha virt. eigenvalues --    3.05344   3.05742   3.06067   3.06514   3.07140
 Alpha virt. eigenvalues --    3.08104   3.09181   3.09212   3.10439   3.10872
 Alpha virt. eigenvalues --    3.11529   3.12690   3.13781   3.15051   3.15077
 Alpha virt. eigenvalues --    3.16107   3.16515   3.17414   3.18263   3.18536
 Alpha virt. eigenvalues --    3.19390   3.19814   3.20626   3.20816   3.22068
 Alpha virt. eigenvalues --    3.22579   3.22616   3.22901   3.23593   3.24040
 Alpha virt. eigenvalues --    3.24919   3.25107   3.25806   3.26436   3.27106
 Alpha virt. eigenvalues --    3.27218   3.28269   3.29206   3.29756   3.30414
 Alpha virt. eigenvalues --    3.30988   3.31345   3.31630   3.32153   3.32972
 Alpha virt. eigenvalues --    3.33179   3.33246   3.33912   3.34768   3.34825
 Alpha virt. eigenvalues --    3.35136   3.35695   3.35902   3.36423   3.36910
 Alpha virt. eigenvalues --    3.37384   3.37660   3.37883   3.38503   3.39286
 Alpha virt. eigenvalues --    3.39366   3.40159   3.41013   3.41081   3.41415
 Alpha virt. eigenvalues --    3.41986   3.42566   3.42830   3.43052   3.43909
 Alpha virt. eigenvalues --    3.44409   3.44889   3.45889   3.45935   3.46072
 Alpha virt. eigenvalues --    3.46448   3.46886   3.47891   3.48122   3.48802
 Alpha virt. eigenvalues --    3.49064   3.49670   3.50053   3.50318   3.50783
 Alpha virt. eigenvalues --    3.51086   3.51442   3.51732   3.52223   3.52863
 Alpha virt. eigenvalues --    3.53191   3.53584   3.53907   3.54373   3.54504
 Alpha virt. eigenvalues --    3.54658   3.55363   3.55532   3.56086   3.56628
 Alpha virt. eigenvalues --    3.56968   3.57183   3.57757   3.58347   3.59125
 Alpha virt. eigenvalues --    3.59488   3.60087   3.60483   3.60670   3.61209
 Alpha virt. eigenvalues --    3.61698   3.61952   3.62190   3.62862   3.63201
 Alpha virt. eigenvalues --    3.63295   3.63856   3.64451   3.64748   3.65098
 Alpha virt. eigenvalues --    3.65273   3.66088   3.66607   3.66910   3.66974
 Alpha virt. eigenvalues --    3.67638   3.67947   3.68311   3.68612   3.68804
 Alpha virt. eigenvalues --    3.69342   3.69929   3.70192   3.70562   3.70810
 Alpha virt. eigenvalues --    3.71093   3.71331   3.71629   3.72063   3.72403
 Alpha virt. eigenvalues --    3.72559   3.73108   3.73205   3.73891   3.74014
 Alpha virt. eigenvalues --    3.74348   3.75077   3.75387   3.75744   3.76284
 Alpha virt. eigenvalues --    3.76604   3.77319   3.77796   3.78287   3.78371
 Alpha virt. eigenvalues --    3.78706   3.78979   3.79106   3.79658   3.80092
 Alpha virt. eigenvalues --    3.80271   3.80685   3.81175   3.81721   3.82284
 Alpha virt. eigenvalues --    3.82496   3.82891   3.83438   3.84187   3.84442
 Alpha virt. eigenvalues --    3.85086   3.85270   3.85657   3.85958   3.86264
 Alpha virt. eigenvalues --    3.86645   3.87384   3.87619   3.88100   3.88408
 Alpha virt. eigenvalues --    3.88948   3.89242   3.90017   3.90295   3.90753
 Alpha virt. eigenvalues --    3.90870   3.91656   3.92290   3.92738   3.93149
 Alpha virt. eigenvalues --    3.93628   3.93703   3.94243   3.94940   3.95416
 Alpha virt. eigenvalues --    3.95896   3.96078   3.96834   3.97122   3.97352
 Alpha virt. eigenvalues --    3.97787   3.98594   3.98614   3.99602   4.00237
 Alpha virt. eigenvalues --    4.00960   4.01167   4.01534   4.01739   4.02443
 Alpha virt. eigenvalues --    4.02708   4.03047   4.03402   4.03928   4.04368
 Alpha virt. eigenvalues --    4.04563   4.05001   4.05479   4.05543   4.06242
 Alpha virt. eigenvalues --    4.06381   4.06772   4.07032   4.07531   4.07805
 Alpha virt. eigenvalues --    4.08162   4.08418   4.09136   4.09215   4.09877
 Alpha virt. eigenvalues --    4.09940   4.10702   4.10892   4.11565   4.11865
 Alpha virt. eigenvalues --    4.11964   4.12367   4.12572   4.13060   4.13468
 Alpha virt. eigenvalues --    4.13554   4.13694   4.14240   4.14751   4.14931
 Alpha virt. eigenvalues --    4.15188   4.15830   4.15992   4.16397   4.16884
 Alpha virt. eigenvalues --    4.17082   4.17749   4.17950   4.18030   4.18606
 Alpha virt. eigenvalues --    4.18707   4.18928   4.19041   4.19625   4.19858
 Alpha virt. eigenvalues --    4.20388   4.20863   4.20972   4.21543   4.21771
 Alpha virt. eigenvalues --    4.22149   4.22701   4.22844   4.23196   4.23856
 Alpha virt. eigenvalues --    4.24339   4.24678   4.25131   4.25568   4.26115
 Alpha virt. eigenvalues --    4.26476   4.26910   4.27582   4.27653   4.28158
 Alpha virt. eigenvalues --    4.28608   4.29113   4.29196   4.29350   4.29650
 Alpha virt. eigenvalues --    4.29948   4.30528   4.30980   4.31147   4.32072
 Alpha virt. eigenvalues --    4.32308   4.32602   4.32873   4.32918   4.33307
 Alpha virt. eigenvalues --    4.33600   4.33789   4.33927   4.34406   4.35127
 Alpha virt. eigenvalues --    4.35644   4.35934   4.36480   4.36653   4.36853
 Alpha virt. eigenvalues --    4.38065   4.38124   4.38468   4.39329   4.39613
 Alpha virt. eigenvalues --    4.39712   4.39850   4.40385   4.40750   4.41097
 Alpha virt. eigenvalues --    4.41324   4.41763   4.41857   4.42562   4.42771
 Alpha virt. eigenvalues --    4.43675   4.43938   4.44153   4.44534   4.45013
 Alpha virt. eigenvalues --    4.45630   4.45886   4.46892   4.47126   4.47957
 Alpha virt. eigenvalues --    4.48717   4.48833   4.49314   4.50074   4.50814
 Alpha virt. eigenvalues --    4.51403   4.51891   4.52434   4.52675   4.53524
 Alpha virt. eigenvalues --    4.54548   4.55793   4.56034   4.56241   4.56680
 Alpha virt. eigenvalues --    4.58255   4.59153   4.60527   4.61088   4.61818
 Alpha virt. eigenvalues --    4.62294   4.63410   4.63951   4.64290   4.64353
 Alpha virt. eigenvalues --    4.65199   4.66056   4.67484   4.67920   4.68840
 Alpha virt. eigenvalues --    4.69780   4.71611   4.73122   4.73491   4.76132
 Alpha virt. eigenvalues --    4.76650   4.78438   4.78737   4.80061   4.83766
 Alpha virt. eigenvalues --    4.84379   4.86004   4.87898   4.96302   5.00445
 Alpha virt. eigenvalues --    5.02585   5.03451   5.03555   5.03702   5.04319
 Alpha virt. eigenvalues --    5.04713   5.04926   5.05749   5.07594   5.09947
 Alpha virt. eigenvalues --    5.11511   5.12000   5.13159   5.13722   5.14503
 Alpha virt. eigenvalues --    5.14818   5.15071   5.15261   5.16367   5.16788
 Alpha virt. eigenvalues --    5.17417   5.17527   5.17849   5.18882   5.18961
 Alpha virt. eigenvalues --    5.19562   5.21677   5.22063   5.23223   5.23578
 Alpha virt. eigenvalues --    5.24397   5.25211   5.26310   5.29368   5.29748
 Alpha virt. eigenvalues --    5.31343   5.32336   5.33397   5.33678   5.35055
 Alpha virt. eigenvalues --    5.35852   5.38355   5.39532   5.41445   5.43497
 Alpha virt. eigenvalues --    5.44885   5.46417   5.46835   5.47187   5.47862
 Alpha virt. eigenvalues --    5.49407   5.56334   5.61856   5.68005   5.72502
 Alpha virt. eigenvalues --    5.75014   5.76491   5.78543   5.78990   5.81732
 Alpha virt. eigenvalues --    5.82654   5.83267   5.83778   5.84717   5.87006
 Alpha virt. eigenvalues --    5.88007   5.89721   5.92169   5.97937   6.23705
 Alpha virt. eigenvalues --    6.27837   6.34429   6.35152   6.36169   6.37332
 Alpha virt. eigenvalues --    6.37534   7.02941   7.04521   7.05247   7.05499
 Alpha virt. eigenvalues --    7.06514   7.06891   7.08321   7.10563   7.11240
 Alpha virt. eigenvalues --    7.11401   7.14966   7.16044   7.18713   7.21128
 Alpha virt. eigenvalues --    7.24055   7.24679   7.25916   7.27889   7.28798
 Alpha virt. eigenvalues --    7.29665   7.31083   7.34626   7.37096   7.42267
 Alpha virt. eigenvalues --    7.45266   7.48511   7.50253   7.51251   7.55450
 Alpha virt. eigenvalues --    7.57344   7.59711   7.64209   7.66208   7.68320
 Alpha virt. eigenvalues --    7.71207   7.74915   7.76704   7.78533   7.79674
 Alpha virt. eigenvalues --    7.81987  23.87270  23.89611  24.04025  24.05549
 Alpha virt. eigenvalues --   24.08248  24.10459  24.11974  24.13976  24.16025
 Alpha virt. eigenvalues --   24.17685  24.18552  24.18920  24.19271  24.20302
 Alpha virt. eigenvalues --   24.20526  24.21367  24.21816  24.22203  24.22926
 Alpha virt. eigenvalues --   24.32318  24.32517  24.34119  24.34515  24.35369
 Alpha virt. eigenvalues --   24.36448  24.45095  24.46986  24.47351  35.60055
 Alpha virt. eigenvalues --   35.63122  50.16244  50.18151  50.19500  50.21201
 Alpha virt. eigenvalues --   50.21477  50.33124  50.34416  50.39543
          Condensed to atoms (all electrons):
 Mulliken charges:
               1
     1  C   -0.520547
     2  C    0.078113
     3  H    0.124460
     4  H    0.120411
     5  H    0.128663
     6  C   -0.714087
     7  H    0.112653
     8  C    0.295989
     9  H    0.126856
    10  H    0.177204
    11  C   -0.727410
    12  C    0.244401
    13  H    0.121544
    14  C   -0.509783
    15  H    0.135764
    16  H    0.128068
    17  H    0.129681
    18  C    0.415770
    19  C   -0.369995
    20  C   -0.246573
    21  C   -0.157178
    22  H    0.127496
    23  C   -0.353698
    24  H    0.119447
    25  C    0.005749
    26  H    0.191799
    27  H    0.160258
    28  C    0.520025
    29  C   -0.425058
    30  C   -0.424708
    31  C   -0.205893
    32  H    0.120456
    33  C   -0.115173
    34  H    0.168178
    35  C    0.031190
    36  H    0.118830
    37  H    0.190666
    38  C   -0.205916
    39  H    0.205115
    40  H    0.159766
    41  C   -0.345081
    42  H    0.131107
    43  H    0.191051
    44  C   -0.213852
    45  H    0.174248
    46  H    0.228699
    47  H    0.140544
    48  C   -0.295356
    49  H    0.177867
    50  H    0.217252
    51  H    0.180899
    52  C   -0.181045
    53  H    0.155899
    54  H    0.179300
    55  H    0.159581
    56  C   -0.222120
    57  H    0.155262
    58  H    0.217101
    59  H    0.209052
    60  C   -0.188890
    61  H    0.156292
    62  H    0.174429
    63  H    0.181547
    64  C   -0.261660
    65  H    0.175202
    66  H    0.208793
    67  H    0.153889
    68  N   -0.201079
    69  N    0.082210
    70  C   -0.098911
    71  O   -0.562750
    72  O   -0.606238
    73  O   -0.655823
    74  H    0.143141
    75  H    0.118409
    76  H    0.122940
    77  H    0.146625
    78  O   -0.525109
    79  H    0.367165
    80  H    0.247198
    81  O   -0.553237
    82  H    0.216894
    83  H    0.339778
    84  O   -0.540047
    85  H    0.290979
    86  H    0.282584
    87  O   -0.684580
    88  H    0.456012
    89  H    0.253351
    90  O   -0.551095
    91  H    0.225740
    92  H    0.343302
 Sum of Mulliken charges =  -0.00000
 Mulliken charges with hydrogens summed into heavy atoms:
               1
     1  C   -0.147013
     2  C    0.190766
     6  C   -0.444522
     8  C    0.600050
    11  C   -0.465861
    12  C    0.365945
    14  C   -0.116270
    18  C    0.415770
    19  C   -0.242499
    20  C   -0.127125
    21  C    0.034621
    23  C   -0.193440
    25  C    0.005749
    28  C    0.520025
    29  C   -0.304602
    30  C   -0.256530
    31  C   -0.087063
    33  C    0.075493
    35  C    0.031190
    38  C    0.158965
    41  C   -0.022922
    44  C    0.329639
    48  C    0.280663
    52  C    0.313735
    56  C    0.359295
    60  C    0.323377
    64  C    0.276224
    68  N   -0.201079
    69  N    0.082210
    70  C   -0.098911
    71  O   -0.562750
    72  O   -0.606238
    73  O   -0.655823
    78  O    0.089254
    81  O    0.003435
    84  O    0.033516
    87  O    0.024782
    90  O    0.017947
 Electronic spatial extent (au):  <R**2>=          21413.0981
 Charge=              0.0000 electrons
 Dipole moment (field-independent basis, Debye):
    X=              5.7445    Y=              0.1300    Z=              2.6442  Tot=              6.3252
 Quadrupole moment (field-independent basis, Debye-Ang):
   XX=           -256.5950   YY=           -157.2505   ZZ=           -251.1790
   XY=             23.6931   XZ=             -2.7406   YZ=             18.0315
 Traceless Quadrupole moment (field-independent basis, Debye-Ang):
   XX=            -34.9202   YY=             64.4243   ZZ=            -29.5041
   XY=             23.6931   XZ=             -2.7406   YZ=             18.0315
 Octapole moment (field-independent basis, Debye-Ang**2):
  XXX=            110.2922  YYY=            130.2621  ZZZ=             45.1927  XYY=           -160.4890
  XXY=           -145.2920  XXZ=             -2.7096  XZZ=             16.3747  YZZ=             37.2404
  YYZ=             22.1027  XYZ=            -22.6660
 Hexadecapole moment (field-independent basis, Debye-Ang**3):
 XXXX=         -14452.1346 YYYY=         -10416.3902 ZZZZ=          -2512.9742 XXXY=            577.0056
 XXXZ=            -77.4431 YYYX=            282.6764 YYYZ=            288.4508 ZZZX=            -44.4929
 ZZZY=             98.5843 XXYY=          -4126.1557 XXZZ=          -2938.9010 YYZZ=          -2273.7792
 XXYZ=            145.6586 YYXZ=              2.6767 ZZXY=            -73.1651
 N-N= 5.054585289288D+03 E-N=-1.433931319301D+04  KE= 1.803729499318D+03
 No NMR shielding tensors so no spin-rotation constants.
 Leave Link  601 at Sun Mar  3 07:16:47 2024, MaxMem=  1342177280 cpu:              31.1 elap:               2.0
 (Enter /packages/apps/gaussian/g16/g16/l9999.exe)
 1\1\GINC-C009\FOpt\RwB97XD\6-311+G(2d,2p)\C28H54N2O8\MDTURNE9\03-Mar-2
 024\0\\#p opt=readfc wb97xd/6-311+g(2d,2p) guess=tcheck\\Required\\0,1
 \C,3.8403671866,-4.7837393895,1.1821076053\C,3.5535379684,-3.650483178
 6,0.1940001792\H,3.2994494724,-5.6898188786,0.9084039645\H,4.90654563,
 -5.0143620034,1.2036871524\H,3.5388099323,-4.506772232,2.1937316633\C,
 4.3673913302,-2.395760845,0.550056661\H,3.8847768943,-3.978117605,-0.7
 956416961\C,4.1401572499,-1.2120115209,-0.3859812854\H,4.2003239223,-1
 .5502913635,-1.4258566771\H,3.1248422867,-0.8376698562,-0.2454794852\C
 ,5.1490346175,-0.0872910546,-0.1699600026\C,4.8989947247,1.1787346237,
 -1.0150486212\H,4.7345001382,0.857323244,-2.047367649\C,6.1294207446,2
 .0858523345,-0.9989621709\H,5.943955104,3.0170670655,-1.5346423594\H,6
 .431208152,2.3357621631,0.0197502608\H,6.9737805687,1.5829483706,-1.47
 12502729\C,2.0697708887,-3.3633270194,0.0895091299\C,1.3377802017,-2.9
 185500119,1.1885807113\C,1.4075536234,-3.4914025201,-1.12672492\C,-0.0
 026932919,-2.5922712596,1.072422736\H,1.826189557,-2.7833895604,2.1453
 16335\C,0.0656312476,-3.1642576828,-1.2497239387\H,1.9579336314,-3.812
 0395469,-2.0024365268\C,-0.6580272099,-2.7104357745,-0.1514941022\H,-0
 .5249183485,-2.1829787051,1.9277071659\H,-0.3994337237,-3.1919950736,-
 2.2262713928\C,3.6328878747,1.8741245806,-0.5582942895\C,3.626084518,2
 .7666613399,0.5113197856\C,2.412035017,1.550368197,-1.1458096804\C,2.4
 34484402,3.2817188438,1.0013722292\H,4.5540263196,3.0467402531,0.99170
 021\C,1.2205469602,2.0347281026,-0.6401929134\H,2.374581246,0.86566226
 87,-1.9839779007\C,1.216140998,2.9056870848,0.4459351177\H,2.455459640
 8,3.9465940345,1.857515858\H,0.2916759648,1.6807851786,-1.0615996635\C
 ,-0.080546794,3.2754945538,1.1011550533\H,-0.7100969312,2.3864698092,1
 .1514254447\H,0.0896285347,3.6529233222,2.1089486172\C,-2.0634116028,-
 2.2050513344,-0.3026047895\H,-2.2897613819,-1.4900630407,0.4806763454\
 H,-2.1971863363,-1.7115840718,-1.2636825747\C,-2.2091727648,4.44109382
 91,1.1544175637\H,-2.843248913,5.1736045624,0.6629945278\H,-2.68954461
 36,3.4626961052,1.1272309534\H,-1.9988681551,4.7396059622,2.1791662225
 \C,-1.1980185604,4.0242705957,-1.0163329234\H,-0.2649104461,4.04818448
 77,-1.5703177848\H,-1.6580288062,3.0395708481,-1.0912136141\H,-1.88863
 83456,4.7736005782,-1.3933634342\C,-0.2003584741,5.651426824,0.4765843
 256\H,-0.0418803859,5.9214216801,1.5178679528\H,0.7565652086,5.5510006
 685,-0.0287672582\H,-0.8068677109,6.4083013746,-0.0140858502\C,-4.4712
 007901,-2.5419786231,-0.332634445\H,-5.2627169476,-3.2885338093,-0.352
 3251471\H,-4.5723379351,-1.8946858438,0.5356711995\H,-4.4755566866,-1.
 9378089778,-1.2395345461\C,-3.0352536104,-4.2547829786,-1.2972505639\H
 ,-3.8588040292,-4.960593616,-1.2205038044\H,-2.0868645663,-4.774775260
 5,-1.2000645872\H,-3.0802008368,-3.7347548439,-2.250750873\C,-3.105970
 9576,-3.9287210593,1.1165161648\H,-2.1513583829,-4.4367911891,1.218600
 5954\H,-3.2199951836,-3.1639425411,1.8810698157\H,-3.9238442229,-4.643
 226662,1.1750664065\N,-0.9121977236,4.3513856757,0.4153465345\N,-3.160
 3336343,-3.2558626638,-0.2090626367\C,-2.2618921805,0.9532479678,0.011
 4173114\O,-1.2336145582,0.4816782916,0.6118878458\O,-3.2689274511,1.39
 55111333,0.6761087813\O,-2.2674159594,1.0181053982,-1.2774346605\H,5.1
 631742534,0.1979762391,0.887144209\H,6.1509573997,-0.4614898347,-0.401
 243443\H,5.4264662085,-2.6713871881,0.5450737996\H,4.1368217397,-2.092
 727373,1.5762837046\O,-0.2292108154,-0.2990892904,-2.4520019893\H,-0.9
 864030976,0.2044709126,-2.0714060228\H,0.215460176,-0.6269160602,-1.66
 89660132\O,-4.623737118,0.0831059879,-2.195103912\H,-5.2585790436,0.57
 98967726,-1.6773239272\H,-3.7572920253,0.4467909563,-1.9003058645\O,-3
 .8642546029,-0.7913438577,2.2831167115\H,-3.8008141895,0.0316512518,1.
 7556423217\H,-3.0388274193,-0.7607483522,2.7880676867\O,-1.2029740862,
 -0.2802282876,3.1069449396\H,-1.2159040417,0.096438133,2.178665099\H,-
 1.2682557762,0.468109686,3.6976744527\O,-4.4810598622,3.2024905133,-0.
 9596317344\H,-4.2411725224,2.8646087461,-1.8233014506\H,-4.1269894819,
 2.5126582897,-0.3531679528\\Version=ES64L-G16RevA.03\State=1-A\HF=-181
 0.9114742\RMSD=2.519e-09\RMSF=9.440e-06\Dipole=2.2644795,-0.0703886,1.
 0295286\Quadrupole=-23.8449969,45.8033789,-21.9583821,21.5820362,-1.32
 54029,13.3035369\PG=C01 [X(C28H54N2O8)]\\@


 DON'T WORRY CHARLIE BROWN...WE LEARN MORE FROM LOSING 
 THAN WE DO FROM WINNING.
 THEN THAT MAKES ME THE SMARTEST PERSON IN THE WORLD...
 CHARLES SCHULZ 'PEANUTS'
 Job cpu time:      14 days 15 hours 12 minutes 28.8 seconds.
 Elapsed time:       0 days 18 hours  2 minutes 12.7 seconds.
 File lengths (MBytes):  RWF=   1382 Int=      0 D2E=      0 Chk=    183 Scr=      1
 Normal termination of Gaussian 16 at Sun Mar  3 07:16:48 2024.
