 Entering Gaussian System, Link 0=g16
 Input=7water-v2.gjf
 Output=7water-v2.log
 Initial command:
 /packages/apps/gaussian/g16/g16/l1.exe "/scratch/mdturne9/26scratch/Gau-2267326.inp" -scrdir="/scratch/mdturne9/26scratch/"
 Entering Link 1 = /packages/apps/gaussian/g16/g16/l1.exe PID=   2267327.
  
 Copyright (c) 1988,1990,1992,1993,1995,1998,2003,2009,2016,
            Gaussian, Inc.  All Rights Reserved.
  
 This is part of the Gaussian(R) 16 program.  It is based on
 the Gaussian(R) 09 system (copyright 2009, Gaussian, Inc.),
 the Gaussian(R) 03 system (copyright 2003, Gaussian, Inc.),
 the Gaussian(R) 98 system (copyright 1998, Gaussian, Inc.),
 the Gaussian(R) 94 system (copyright 1995, Gaussian, Inc.),
 the Gaussian 92(TM) system (copyright 1992, Gaussian, Inc.),
 the Gaussian 90(TM) system (copyright 1990, Gaussian, Inc.),
 the Gaussian 88(TM) system (copyright 1988, Gaussian, Inc.),
 the Gaussian 86(TM) system (copyright 1986, Carnegie Mellon
 University), and the Gaussian 82(TM) system (copyright 1983,
 Carnegie Mellon University). Gaussian is a federally registered
 trademark of Gaussian, Inc.
  
 This software contains proprietary and confidential information,
 including trade secrets, belonging to Gaussian, Inc.
  
 This software is provided under written license and may be
 used, copied, transmitted, or stored only in accord with that
 written license.
  
 The following legend is applicable only to US Government
 contracts under FAR:
  
                    RESTRICTED RIGHTS LEGEND
  
 Use, reproduction and disclosure by the US Government is
 subject to restrictions as set forth in subparagraphs (a)
 and (c) of the Commercial Computer Software - Restricted
 Rights clause in FAR 52.227-19.
  
 Gaussian, Inc.
 340 Quinnipiac St., Bldg. 40, Wallingford CT 06492
  
  
 ---------------------------------------------------------------
 Warning -- This program may not be used in any manner that
 competes with the business of Gaussian, Inc. or will provide
 assistance to any competitor of Gaussian, Inc.  The licensee
 of this program is prohibited from giving any competitor of
 Gaussian, Inc. access to this program.  By using this program,
 the user acknowledges that Gaussian, Inc. is engaged in the
 business of creating and licensing software in the field of
 computational chemistry and represents and warrants to the
 licensee that it is not a competitor of Gaussian, Inc. and that
 it will not use this program in any manner prohibited above.
 ---------------------------------------------------------------
  

 Cite this work as:
 Gaussian 16, Revision A.03,
 M. J. Frisch, G. W. Trucks, H. B. Schlegel, G. E. Scuseria, 
 M. A. Robb, J. R. Cheeseman, G. Scalmani, V. Barone, 
 G. A. Petersson, H. Nakatsuji, X. Li, M. Caricato, A. V. Marenich, 
 J. Bloino, B. G. Janesko, R. Gomperts, B. Mennucci, H. P. Hratchian, 
 J. V. Ortiz, A. F. Izmaylov, J. L. Sonnenberg, D. Williams-Young, 
 F. Ding, F. Lipparini, F. Egidi, J. Goings, B. Peng, A. Petrone, 
 T. Henderson, D. Ranasinghe, V. G. Zakrzewski, J. Gao, N. Rega, 
 G. Zheng, W. Liang, M. Hada, M. Ehara, K. Toyota, R. Fukuda, 
 J. Hasegawa, M. Ishida, T. Nakajima, Y. Honda, O. Kitao, H. Nakai, 
 T. Vreven, K. Throssell, J. A. Montgomery, Jr., J. E. Peralta, 
 F. Ogliaro, M. J. Bearpark, J. J. Heyd, E. N. Brothers, K. N. Kudin, 
 V. N. Staroverov, T. A. Keith, R. Kobayashi, J. Normand, 
 K. Raghavachari, A. P. Rendell, J. C. Burant, S. S. Iyengar, 
 J. Tomasi, M. Cossi, J. M. Millam, M. Klene, C. Adamo, R. Cammi, 
 J. W. Ochterski, R. L. Martin, K. Morokuma, O. Farkas, 
 J. B. Foresman, and D. J. Fox, Gaussian, Inc., Wallingford CT, 2016.
 
 ******************************************
 Gaussian 16:  ES64L-G16RevA.03 25-Dec-2016
                26-Feb-2024 
 ******************************************
 %oldchk=7water.chk
 %nprocshared=20
 Will use up to   20 processors via shared memory.
 %mem=10GB
 %chk=7water-v2.chk
 Copying data from "7water.chk" to current chk file "7water-v2.chk"
 IOpt=  2 FromEx=T IUOpen= 4 IOptOp= 5 NList=   0 IFRang= 0 IUIn= 4 IUOut= 2.
 ----------------------------------------------------------------
 #p opt=readfc wb97xd/6-311+g(2d,2p) guess=read geom=connectivity
 ----------------------------------------------------------------
 1/10=3,18=20,19=15,26=3,38=1,57=2/1,3;
 2/9=110,12=2,17=6,18=5,40=1/2;
 3/5=4,6=6,7=212,11=2,25=1,30=1,71=1,74=-58,116=-2/1,2,3;
 4/5=1/1;
 5/5=2,38=6/2;
 6/7=2,8=2,9=2,10=2,28=1/1;
 7//1,2,3,16;
 1/18=20,19=15,26=3/3(2);
 2/9=110/2;
 99//99;
 2/9=110/2;
 3/5=4,6=6,7=212,11=2,25=1,30=1,71=1,74=-58/1,2,3;
 4/5=5,16=3,69=1/1;
 5/5=2,38=5/2;
 7//1,2,3,16;
 1/18=20,19=15,26=3/3(-5);
 2/9=110/2;
 6/7=2,8=2,9=2,10=2,19=2,28=1/1;
 99/9=1/99;
 Leave Link    1 at Mon Feb 26 09:40:50 2024, MaxMem=  1342177280 cpu:              25.4 elap:               1.4
 (Enter /packages/apps/gaussian/g16/g16/l101.exe)
 --------
 Required
 --------
 Symbolic Z-matrix:
 Charge =  0 Multiplicity = 1
 C                    0    -6.16553  -2.33139   0.25163  H 
 C                    0    -5.1209   -1.2739    0.61538  H 
 H                    0    -6.06862  -3.21407   0.88414  H 
 H                    0    -7.1733   -1.93185   0.37332  H 
 H                    0    -6.0593   -2.65005  -0.78674  H 
 C                    0    -5.26479  -0.02731  -0.27234  H 
 H                    0    -5.30216  -0.96507   1.64896  H 
 C                    0    -4.36662   1.13366   0.14035  H 
 H                    0    -4.63283   1.44801   1.15557  H 
 H                    0    -3.32804   0.80009   0.18861  H 
 C                    0    -4.47281   2.32552  -0.80475  H 
 C                    0    -3.74597   3.58458  -0.30803  H 
 H                    0    -4.17768   3.8435    0.66338  H 
 C                    0    -3.98886   4.76365  -1.25246  H 
 H                    0    -3.48284   5.66226  -0.89868  H 
 H                    0    -3.62498   4.548    -2.25813  H 
 H                    0    -5.05578   4.9786   -1.32732  H 
 C                    0    -3.71089  -1.82247   0.55041  H 
 C                    0    -3.20062  -2.33407  -0.64162  H 
 C                    0    -2.86245  -1.75469   1.64933  H 
 C                    0    -1.88237  -2.74125  -0.73498  H 
 H                    0    -3.8256   -2.37442  -1.52447  H 
 C                    0    -1.54005  -2.16377   1.56165  H 
 H                    0    -3.22574  -1.33142   2.57739  H 
 C                    0    -1.03463  -2.6643    0.36821  H 
 H                    0    -1.49187  -3.06878  -1.68908  H 
 H                    0    -0.87798  -2.01989   2.40651  H 
 C                    0    -2.27033   3.3281   -0.08037  H 
 C                    0    -1.39156   3.14125  -1.14575  H 
 C                    0    -1.76649   3.21437   1.21132  H 
 C                    0    -0.05059   2.87788  -0.9256   H 
 H                    0    -1.75757   3.1685   -2.16356  H 
 C                    0    -0.42838   2.93507   1.43649  H 
 H                    0    -2.43864   3.3142    2.0546   H 
 C                    0     0.45022   2.79067   0.36935  H 
 H                    0     0.60378   2.68611  -1.76625  H 
 H                    0    -0.07466   2.77406   2.44694  H 
 C                    0     1.88401   2.43458   0.60879  H 
 H                    0     1.98418   1.82507   1.50499  H 
 H                    0     2.30333   1.90221  -0.23713  H 
 C                    0     0.42997  -2.94481   0.23094  H 
 H                    0     0.78028  -2.62241  -0.74305  H 
 H                    0     0.98782  -2.4349    1.00517  H 
 C                    0     4.16964   3.06883   1.11262  H 
 H                    0     4.87224   3.89155   1.22396  H 
 H                    0     4.10213   2.50237   2.03744  H 
 H                    0     4.48003   2.41174   0.30635  H 
 C                    0     2.37432   4.49249   1.91384  H 
 H                    0     1.40859   4.92177   1.66647  H 
 H                    0     2.28573   3.88724   2.81263  H 
 H                    0     3.11055   5.2791    2.06187  H 
 C                    0     2.90416   4.41516  -0.46519  H 
 H                    0     3.2475    3.74646  -1.25523  H 
 H                    0     1.91615   4.80475  -0.69308  H 
 H                    0     3.60476   5.23381  -0.31461  H 
 C                    0     2.33703  -4.43224   0.14613  H 
 H                    0     2.67154  -5.46541   0.21096  H 
 H                    0     2.59248  -4.00996  -0.82291  H 
 H                    0     2.78512  -3.82963   0.93245  H 
 C                    0     0.50728  -4.94771   1.66137  H 
 H                    0     0.84422  -5.98021   1.71977  H 
 H                    0    -0.56941  -4.89367   1.79677  H 
 H                    0     1.00986  -4.34261   2.41266  H 
 C                    0     0.2203   -5.20789  -0.75293  H 
 H                    0    -0.85355  -5.23258  -0.59358  H 
 H                    0     0.45064  -4.73309  -1.70545  H 
 H                    0     0.62674  -6.21602  -0.71628  H 
 N                    0     2.82261   3.62584   0.79702  H 
 N                    0     0.85286  -4.40363   0.32521  H 
 C                    0     2.01061  -0.43524  -0.50437  H 
 O                    0     0.91309  -0.19408   0.06937  H 
 O                    0     2.15407  -0.29449  -1.77569  H 
 O                    0     3.04265  -0.84887   0.18969  H 
 H                    0    -4.07824   2.04572  -1.7866   L    H        11    0.        0.        0.        0. 
 H                    0    -5.52658   2.57973  -0.95616  L    H        11    0.        0.        0.        0. 
 H                    0    -6.30972   0.29645  -0.25004  L    H        6     0.        0.        0.        0. 
 H                    0    -5.05204  -0.30209  -1.31027  L    H        6     0.        0.        0.        0. 
 O                    0     2.8093   -2.07059   2.48804  L 
 H                    0     3.66425  -2.02815   2.91421  L 
 H                    0     2.90739  -1.55076   1.63748  L 
 O                    0     4.37696  -2.50829  -1.53358  L 
 H                    0     4.2058   -2.11333  -2.38897  L 
 H                    0     3.89943  -1.91437  -0.91666  L 
 O                    0     0.96609  -2.65068  -2.95157  L 
 H                    0     1.67974  -2.05373  -2.68065  L 
 H                    0     0.23165  -2.02069  -3.01576  L 
 O                    0    -0.48211  -0.19398  -2.54706  L 
 H                    0    -0.80869  -0.19809  -1.64307  L 
 H                    0     0.4753   -0.05778  -2.38119  L 
 O                    0     5.42276   0.33928  -0.25918  L 
 H                    0     4.54774  -0.07452  -0.0732   L 
 H                    0     5.91442  -0.36434  -0.6859   L 
 O                    0     3.8567    1.83924  -2.13283  L 
 H                    0     4.60933   1.42379  -1.69061  L 
 H                    0     3.21652   1.10122  -2.17344  L 
 O                    0     0.88502   0.12748   2.76539  L 
 H                    0     1.52255  -0.54767   3.02084  L 
 H                    0     0.82737   0.00084   1.79175  L 
 
 Warning:  atom H74 in layer R is uses the same element as its link atom.
 Warning:  atom H75 in layer R is uses the same element as its link atom.
 Warning:  atom H76 in layer R is uses the same element as its link atom.
 Warning:  atom H77 in layer R is uses the same element as its link atom.
 Add virtual bond connecting atoms H80        and O73        Dist= 3.05D+00.
 Add virtual bond connecting atoms H91        and O73        Dist= 3.24D+00.
 Add virtual bond connecting atoms H98        and O71        Dist= 3.28D+00.
 Add virtual bond connecting atoms H83        and O73        Dist= 3.32D+00.
 Add virtual bond connecting atoms H95        and O72        Dist= 3.40D+00.
 Add virtual bond connecting atoms H89        and O72        Dist= 3.40D+00.
 Add virtual bond connecting atoms O72        and H85        Dist= 3.84D+00.
 Add virtual bond connecting atoms O87        and H86        Dist= 3.81D+00.
 Add virtual bond connecting atoms H89        and H86        Dist= 3.93D+00.
 Add virtual bond connecting atoms H80        and H43        Dist= 4.17D+00.
 Add virtual bond connecting atoms O84        and H42        Dist= 4.19D+00.
 Add virtual bond connecting atoms H85        and H42        Dist= 4.18D+00.
 Add virtual bond connecting atoms O93        and H53        Dist= 4.13D+00.
 Add virtual bond connecting atoms H94        and H47        Dist= 4.22D+00.
 Add atom     87 valence  3 ND=      2 dihedral      86     87     88     89
 ITRead=  0  0  0  0  0  0  0  0  0  0  0  0  0  0  0  0  0  0  0  0
 ITRead=  0  0  0  0  0  0  0  0  0  0  0  0  0  0  0  0  0  0  0  0
 ITRead=  0  0  0  0  0  0  0  0  0  0  0  0  0  0  0  0  0  0  0  0
 ITRead=  0  0  0  0  0  0  0  0  0  0  0  0  0  0  0  0  0  0  0  0
 ITRead=  0  0  0  0  0  0  0  0  0  0  0  0  0  0  0  0  0  0
 MicOpt= -1 -1 -1 -1 -1 -1 -1 -1 -1 -1 -1 -1 -1 -1 -1 -1 -1 -1 -1 -1
 MicOpt= -1 -1 -1 -1 -1 -1 -1 -1 -1 -1 -1 -1 -1 -1 -1 -1 -1 -1 -1 -1
 MicOpt= -1 -1 -1 -1 -1 -1 -1 -1 -1 -1 -1 -1 -1 -1 -1 -1 -1 -1 -1 -1
 MicOpt= -1 -1 -1 -1 -1 -1 -1 -1 -1 -1 -1 -1 -1 -1 -1 -1 -1 -1 -1 -1
 MicOpt= -1 -1 -1 -1 -1 -1 -1 -1 -1 -1 -1 -1 -1 -1 -1 -1 -1 -1
 NAtoms=     98 NQM=       98 NQMF=       0 NMMI=      0 NMMIF=      0
                NMic=       0 NMicF=      0.
                    Isotopes and Nuclear Properties:
 (Nuclear quadrupole moments (NQMom) in fm**2, nuclear magnetic moments (NMagM)
  in nuclear magnetons)

  Atom         1           2           3           4           5           6           7           8           9          10
 IAtWgt=          12          12           1           1           1          12           1          12           1           1
 AtmWgt=  12.0000000  12.0000000   1.0078250   1.0078250   1.0078250  12.0000000   1.0078250  12.0000000   1.0078250   1.0078250
 NucSpn=           0           0           1           1           1           0           1           0           1           1
 AtZEff=  -0.0000000  -0.0000000  -0.0000000  -0.0000000  -0.0000000  -0.0000000  -0.0000000  -0.0000000  -0.0000000  -0.0000000
 NQMom=    0.0000000   0.0000000   0.0000000   0.0000000   0.0000000   0.0000000   0.0000000   0.0000000   0.0000000   0.0000000
 NMagM=    0.0000000   0.0000000   2.7928460   2.7928460   2.7928460   0.0000000   2.7928460   0.0000000   2.7928460   2.7928460
 AtZNuc=   6.0000000   6.0000000   1.0000000   1.0000000   1.0000000   6.0000000   1.0000000   6.0000000   1.0000000   1.0000000

  Atom        11          12          13          14          15          16          17          18          19          20
 IAtWgt=          12          12           1          12           1           1           1          12          12          12
 AtmWgt=  12.0000000  12.0000000   1.0078250  12.0000000   1.0078250   1.0078250   1.0078250  12.0000000  12.0000000  12.0000000
 NucSpn=           0           0           1           0           1           1           1           0           0           0
 AtZEff=  -0.0000000  -0.0000000  -0.0000000  -0.0000000  -0.0000000  -0.0000000  -0.0000000  -0.0000000  -0.0000000  -0.0000000
 NQMom=    0.0000000   0.0000000   0.0000000   0.0000000   0.0000000   0.0000000   0.0000000   0.0000000   0.0000000   0.0000000
 NMagM=    0.0000000   0.0000000   2.7928460   0.0000000   2.7928460   2.7928460   2.7928460   0.0000000   0.0000000   0.0000000
 AtZNuc=   6.0000000   6.0000000   1.0000000   6.0000000   1.0000000   1.0000000   1.0000000   6.0000000   6.0000000   6.0000000

  Atom        21          22          23          24          25          26          27          28          29          30
 IAtWgt=          12           1          12           1          12           1           1          12          12          12
 AtmWgt=  12.0000000   1.0078250  12.0000000   1.0078250  12.0000000   1.0078250   1.0078250  12.0000000  12.0000000  12.0000000
 NucSpn=           0           1           0           1           0           1           1           0           0           0
 AtZEff=  -0.0000000  -0.0000000  -0.0000000  -0.0000000  -0.0000000  -0.0000000  -0.0000000  -0.0000000  -0.0000000  -0.0000000
 NQMom=    0.0000000   0.0000000   0.0000000   0.0000000   0.0000000   0.0000000   0.0000000   0.0000000   0.0000000   0.0000000
 NMagM=    0.0000000   2.7928460   0.0000000   2.7928460   0.0000000   2.7928460   2.7928460   0.0000000   0.0000000   0.0000000
 AtZNuc=   6.0000000   1.0000000   6.0000000   1.0000000   6.0000000   1.0000000   1.0000000   6.0000000   6.0000000   6.0000000

  Atom        31          32          33          34          35          36          37          38          39          40
 IAtWgt=          12           1          12           1          12           1           1          12           1           1
 AtmWgt=  12.0000000   1.0078250  12.0000000   1.0078250  12.0000000   1.0078250   1.0078250  12.0000000   1.0078250   1.0078250
 NucSpn=           0           1           0           1           0           1           1           0           1           1
 AtZEff=  -0.0000000  -0.0000000  -0.0000000  -0.0000000  -0.0000000  -0.0000000  -0.0000000  -0.0000000  -0.0000000  -0.0000000
 NQMom=    0.0000000   0.0000000   0.0000000   0.0000000   0.0000000   0.0000000   0.0000000   0.0000000   0.0000000   0.0000000
 NMagM=    0.0000000   2.7928460   0.0000000   2.7928460   0.0000000   2.7928460   2.7928460   0.0000000   2.7928460   2.7928460
 AtZNuc=   6.0000000   1.0000000   6.0000000   1.0000000   6.0000000   1.0000000   1.0000000   6.0000000   1.0000000   1.0000000

  Atom        41          42          43          44          45          46          47          48          49          50
 IAtWgt=          12           1           1          12           1           1           1          12           1           1
 AtmWgt=  12.0000000   1.0078250   1.0078250  12.0000000   1.0078250   1.0078250   1.0078250  12.0000000   1.0078250   1.0078250
 NucSpn=           0           1           1           0           1           1           1           0           1           1
 AtZEff=  -0.0000000  -0.0000000  -0.0000000  -0.0000000  -0.0000000  -0.0000000  -0.0000000  -0.0000000  -0.0000000  -0.0000000
 NQMom=    0.0000000   0.0000000   0.0000000   0.0000000   0.0000000   0.0000000   0.0000000   0.0000000   0.0000000   0.0000000
 NMagM=    0.0000000   2.7928460   2.7928460   0.0000000   2.7928460   2.7928460   2.7928460   0.0000000   2.7928460   2.7928460
 AtZNuc=   6.0000000   1.0000000   1.0000000   6.0000000   1.0000000   1.0000000   1.0000000   6.0000000   1.0000000   1.0000000

  Atom        51          52          53          54          55          56          57          58          59          60
 IAtWgt=           1          12           1           1           1          12           1           1           1          12
 AtmWgt=   1.0078250  12.0000000   1.0078250   1.0078250   1.0078250  12.0000000   1.0078250   1.0078250   1.0078250  12.0000000
 NucSpn=           1           0           1           1           1           0           1           1           1           0
 AtZEff=  -0.0000000  -0.0000000  -0.0000000  -0.0000000  -0.0000000  -0.0000000  -0.0000000  -0.0000000  -0.0000000  -0.0000000
 NQMom=    0.0000000   0.0000000   0.0000000   0.0000000   0.0000000   0.0000000   0.0000000   0.0000000   0.0000000   0.0000000
 NMagM=    2.7928460   0.0000000   2.7928460   2.7928460   2.7928460   0.0000000   2.7928460   2.7928460   2.7928460   0.0000000
 AtZNuc=   1.0000000   6.0000000   1.0000000   1.0000000   1.0000000   6.0000000   1.0000000   1.0000000   1.0000000   6.0000000

  Atom        61          62          63          64          65          66          67          68          69          70
 IAtWgt=           1           1           1          12           1           1           1          14          14          12
 AtmWgt=   1.0078250   1.0078250   1.0078250  12.0000000   1.0078250   1.0078250   1.0078250  14.0030740  14.0030740  12.0000000
 NucSpn=           1           1           1           0           1           1           1           2           2           0
 AtZEff=  -0.0000000  -0.0000000  -0.0000000  -0.0000000  -0.0000000  -0.0000000  -0.0000000  -0.0000000  -0.0000000  -0.0000000
 NQMom=    0.0000000   0.0000000   0.0000000   0.0000000   0.0000000   0.0000000   0.0000000   2.0440000   2.0440000   0.0000000
 NMagM=    2.7928460   2.7928460   2.7928460   0.0000000   2.7928460   2.7928460   2.7928460   0.4037610   0.4037610   0.0000000
 AtZNuc=   1.0000000   1.0000000   1.0000000   6.0000000   1.0000000   1.0000000   1.0000000   7.0000000   7.0000000   6.0000000

  Atom        71          72          73          74          75          76          77          78          79          80
 IAtWgt=          16          16          16           1           1           1           1          16           1           1
 AtmWgt=  15.9949146  15.9949146  15.9949146   1.0078250   1.0078250   1.0078250   1.0078250  15.9949146   1.0078250   1.0078250
 NucSpn=           0           0           0           1           1           1           1           0           1           1
 AtZEff=  -0.0000000  -0.0000000  -0.0000000  -0.0000000  -0.0000000  -0.0000000  -0.0000000  -0.0000000  -0.0000000  -0.0000000
 NQMom=    0.0000000   0.0000000   0.0000000   0.0000000   0.0000000   0.0000000   0.0000000   0.0000000   0.0000000   0.0000000
 NMagM=    0.0000000   0.0000000   0.0000000   2.7928460   2.7928460   2.7928460   2.7928460   0.0000000   2.7928460   2.7928460
 AtZNuc=   8.0000000   8.0000000   8.0000000   1.0000000   1.0000000   1.0000000   1.0000000   8.0000000   1.0000000   1.0000000

  Atom        81          82          83          84          85          86          87          88          89          90
 IAtWgt=          16           1           1          16           1           1          16           1           1          16
 AtmWgt=  15.9949146   1.0078250   1.0078250  15.9949146   1.0078250   1.0078250  15.9949146   1.0078250   1.0078250  15.9949146
 NucSpn=           0           1           1           0           1           1           0           1           1           0
 AtZEff=  -0.0000000  -0.0000000  -0.0000000  -0.0000000  -0.0000000  -0.0000000  -0.0000000  -0.0000000  -0.0000000  -0.0000000
 NQMom=    0.0000000   0.0000000   0.0000000   0.0000000   0.0000000   0.0000000   0.0000000   0.0000000   0.0000000   0.0000000
 NMagM=    0.0000000   2.7928460   2.7928460   0.0000000   2.7928460   2.7928460   0.0000000   2.7928460   2.7928460   0.0000000
 AtZNuc=   8.0000000   1.0000000   1.0000000   8.0000000   1.0000000   1.0000000   8.0000000   1.0000000   1.0000000   8.0000000

  Atom        91          92          93          94          95          96          97          98
 IAtWgt=           1           1          16           1           1          16           1           1
 AtmWgt=   1.0078250   1.0078250  15.9949146   1.0078250   1.0078250  15.9949146   1.0078250   1.0078250
 NucSpn=           1           1           0           1           1           0           1           1
 AtZEff=  -0.0000000  -0.0000000  -0.0000000  -0.0000000  -0.0000000  -0.0000000  -0.0000000  -0.0000000
 NQMom=    0.0000000   0.0000000   0.0000000   0.0000000   0.0000000   0.0000000   0.0000000   0.0000000
 NMagM=    2.7928460   2.7928460   0.0000000   2.7928460   2.7928460   0.0000000   2.7928460   2.7928460
 AtZNuc=   1.0000000   1.0000000   8.0000000   1.0000000   1.0000000   8.0000000   1.0000000   1.0000000
 Leave Link  101 at Mon Feb 26 09:40:51 2024, MaxMem=  1342177280 cpu:               7.9 elap:               0.5
 (Enter /packages/apps/gaussian/g16/g16/l103.exe)

 GradGradGradGradGradGradGradGradGradGradGradGradGradGradGradGradGradGrad
 Berny optimization.
 Initialization pass.
 Force constant matrix read from checkpoint file:
 "7water-v2.chk"
 NVar current= 566 chk= 618 common= 513.
                           ----------------------------
                           !    Initial Parameters    !
                           ! (Angstroms and Degrees)  !
 --------------------------                            --------------------------
 ! Name  Definition              Value          Derivative Info.                !
 --------------------------------------------------------------------------------
 ! R1    R(1,2)                  1.5303         D2E/DX2 =    0.2803             !
 ! R2    R(1,3)                  1.0902         D2E/DX2 =    0.3311             !
 ! R3    R(1,4)                  1.0909         D2E/DX2 =    0.3306             !
 ! R4    R(1,5)                  1.0913         D2E/DX2 =    0.3317             !
 ! R5    R(2,6)                  1.5371         D2E/DX2 =    0.2565             !
 ! R6    R(2,7)                  1.0939         D2E/DX2 =    0.3199             !
 ! R7    R(2,18)                 1.5144         D2E/DX2 =    0.2789             !
 ! R8    R(6,8)                  1.5247         D2E/DX2 =    0.2695             !
 ! R9    R(6,76)                 1.0942         D2E/DX2 =    0.3242             !
 ! R10   R(6,77)                 1.0946         D2E/DX2 =    0.3255             !
 ! R11   R(8,9)                  1.0956         D2E/DX2 =    0.3264             !
 ! R12   R(8,10)                 1.0919         D2E/DX2 =    0.3309             !
 ! R13   R(8,11)                 1.5248         D2E/DX2 =    0.2687             !
 ! R14   R(11,12)                1.5363         D2E/DX2 =    0.2578             !
 ! R15   R(11,74)                1.0945         D2E/DX2 =    0.3261             !
 ! R16   R(11,75)                1.0945         D2E/DX2 =    0.3239             !
 ! R17   R(12,13)                1.0941         D2E/DX2 =    0.3211             !
 ! R18   R(12,14)                1.5301         D2E/DX2 =    0.2785             !
 ! R19   R(12,28)                1.515          D2E/DX2 =    0.2791             !
 ! R20   R(14,15)                1.0903         D2E/DX2 =    0.3314             !
 ! R21   R(14,16)                1.091          D2E/DX2 =    0.3302             !
 ! R22   R(14,17)                1.0909         D2E/DX2 =    0.3316             !
 ! R23   R(18,19)                1.3939         D2E/DX2 =    0.3696             !
 ! R24   R(18,20)                1.39           D2E/DX2 =    0.3727             !
 ! R25   R(19,21)                1.3829         D2E/DX2 =    0.38               !
 ! R26   R(19,22)                1.0824         D2E/DX2 =    0.3501             !
 ! R27   R(20,23)                1.387          D2E/DX2 =    0.3751             !
 ! R28   R(20,24)                1.0828         D2E/DX2 =    0.3498             !
 ! R29   R(21,25)                1.3934         D2E/DX2 =    0.3746             !
 ! R30   R(21,26)                1.0817         D2E/DX2 =    0.3466             !
 ! R31   R(23,25)                1.3893         D2E/DX2 =    0.3775             !
 ! R32   R(23,27)                1.083          D2E/DX2 =    0.3478             !
 ! R33   R(25,41)                1.4975         D2E/DX2 =    0.2932             !
 ! R34   R(28,29)                1.3936         D2E/DX2 =    0.3686             !
 ! R35   R(28,30)                1.3911         D2E/DX2 =    0.3733             !
 ! R36   R(29,31)                1.3842         D2E/DX2 =    0.3764             !
 ! R37   R(29,32)                1.082          D2E/DX2 =    0.3511             !
 ! R38   R(30,33)                1.3854         D2E/DX2 =    0.3748             !
 ! R39   R(30,34)                1.083          D2E/DX2 =    0.3496             !
 ! R40   R(31,35)                1.3912         D2E/DX2 =    0.3774             !
 ! R41   R(31,36)                1.0824         D2E/DX2 =    0.3466             !
 ! R42   R(33,35)                1.3898         D2E/DX2 =    0.3734             !
 ! R43   R(33,37)                1.0826         D2E/DX2 =    0.3489             !
 ! R44   R(35,38)                1.4966         D2E/DX2 =    0.2906             !
 ! R45   R(38,39)                1.0884         D2E/DX2 =    0.3401             !
 ! R46   R(38,40)                1.0839         D2E/DX2 =    0.3138             !
 ! R47   R(38,68)                1.5282         D2E/DX2 =    0.2162             !
 ! R48   R(41,42)                1.0841         D2E/DX2 =    0.2912             !
 ! R49   R(41,43)                1.082          D2E/DX2 =    0.343              !
 ! R50   R(41,69)                1.5218         D2E/DX2 =    0.2427             !
 ! R51   R(42,84)                2.2165         D2E/DX2 =    0.0307             !
 ! R52   R(42,85)                2.2106         D2E/DX2 =    0.0292             !
 ! R53   R(43,80)                2.206          D2E/DX2 =    0.0202             !
 ! R54   R(44,45)                1.0876         D2E/DX2 =    0.3375             !
 ! R55   R(44,46)                1.0866         D2E/DX2 =    0.3387             !
 ! R56   R(44,47)                1.0854         D2E/DX2 =    0.3231             !
 ! R57   R(44,68)                1.4914         D2E/DX2 =    0.2365             !
 ! R58   R(47,94)                2.2317         D2E/DX2 =    0.0157             !
 ! R59   R(48,49)                1.0854         D2E/DX2 =    0.3391             !
 ! R60   R(48,50)                1.0872         D2E/DX2 =    0.3396             !
 ! R61   R(48,51)                1.0875         D2E/DX2 =    0.3347             !
 ! R62   R(48,68)                1.483          D2E/DX2 =    0.2817             !
 ! R63   R(52,53)                1.0905         D2E/DX2 =    0.3407             !
 ! R64   R(52,54)                1.0862         D2E/DX2 =    0.3396             !
 ! R65   R(52,55)                1.088          D2E/DX2 =    0.3373             !
 ! R66   R(52,68)                1.4909         D2E/DX2 =    0.272              !
 ! R67   R(53,93)                2.186          D2E/DX2 =    0.0321             !
 ! R68   R(56,57)                1.0879         D2E/DX2 =    0.3383             !
 ! R69   R(56,58)                1.0875         D2E/DX2 =    0.3474             !
 ! R70   R(56,59)                1.0873         D2E/DX2 =    0.3434             !
 ! R71   R(56,69)                1.4952         D2E/DX2 =    0.2513             !
 ! R72   R(60,61)                1.0877         D2E/DX2 =    0.3356             !
 ! R73   R(60,62)                1.0865         D2E/DX2 =    0.3409             !
 ! R74   R(60,63)                1.0877         D2E/DX2 =    0.3388             !
 ! R75   R(60,69)                1.4835         D2E/DX2 =    0.2799             !
 ! R76   R(64,65)                1.0859         D2E/DX2 =    0.3393             !
 ! R77   R(64,66)                1.0889         D2E/DX2 =    0.3389             !
 ! R78   R(64,67)                1.0876         D2E/DX2 =    0.3361             !
 ! R79   R(64,69)                1.4864         D2E/DX2 =    0.2773             !
 ! R80   R(70,71)                1.2617         D2E/DX2 =    0.4445             !
 ! R81   R(70,72)                1.2871         D2E/DX2 =    0.5278             !
 ! R82   R(70,73)                1.3107         D2E/DX2 =    0.5637             !
 ! R83   R(71,98)                1.7355         D2E/DX2 =    0.0212             !
 ! R84   R(72,85)                2.0344         D2E/DX2 =    0.0182             !
 ! R85   R(72,89)                1.8003         D2E/DX2 =    0.0266             !
 ! R86   R(72,95)                1.7986         D2E/DX2 =    0.0184             !
 ! R87   R(73,80)                1.6146         D2E/DX2 =    0.0301             !
 ! R88   R(73,83)                1.7588         D2E/DX2 =    0.0316             !
 ! R89   R(73,91)                1.7129         D2E/DX2 =    0.0338             !
 ! R90   R(78,79)                0.9562         D2E/DX2 =    0.5107             !
 ! R91   R(78,80)                1.0016         D2E/DX2 =    0.3951             !
 ! R92   R(81,82)                0.9576         D2E/DX2 =    0.542              !
 ! R93   R(81,83)                0.9805         D2E/DX2 =    0.4458             !
 ! R94   R(84,85)                0.969          D2E/DX2 =    0.3547             !
 ! R95   R(84,86)                0.9697         D2E/DX2 =    0.3864             !
 ! R96   R(86,87)                2.0164         D2E/DX2 =    0.0114             !
 ! R97   R(86,89)                2.0773         D2E/DX2 =    0.0168             !
 ! R98   R(87,88)                0.9612         D2E/DX2 =    0.4333             !
 ! R99   R(87,89)                0.9812         D2E/DX2 =    0.279              !
 ! R100  R(90,91)                0.9856         D2E/DX2 =    0.3926             !
 ! R101  R(90,92)                0.9586         D2E/DX2 =    0.4924             !
 ! R102  R(93,94)                0.9667         D2E/DX2 =    0.5104             !
 ! R103  R(93,95)                0.9778         D2E/DX2 =    0.5009             !
 ! R104  R(96,97)                0.9631         D2E/DX2 =    0.4642             !
 ! R105  R(96,98)                0.9835         D2E/DX2 =    0.4311             !
 ! A1    A(2,1,3)              111.1559         D2E/DX2 =    0.1027             !
 ! A2    A(2,1,4)              110.549          D2E/DX2 =    0.1029             !
 ! A3    A(2,1,5)              111.1915         D2E/DX2 =    0.103              !
 ! A4    A(3,1,4)              108.2962         D2E/DX2 =    0.0506             !
 ! A5    A(3,1,5)              107.8752         D2E/DX2 =    0.052              !
 ! A6    A(4,1,5)              107.6372         D2E/DX2 =    0.0516             !
 ! A7    A(1,2,6)              111.0539         D2E/DX2 =    0.073              !
 ! A8    A(1,2,7)              107.8533         D2E/DX2 =    0.0234             !
 ! A9    A(1,2,18)             112.0287         D2E/DX2 =    0.0557             !
 ! A10   A(6,2,7)              107.5302         D2E/DX2 =    0.0231             !
 ! A11   A(6,2,18)             110.8648         D2E/DX2 =    0.0409             !
 ! A12   A(7,2,18)             107.2837         D2E/DX2 =    0.0219             !
 ! A13   A(2,6,8)              113.9569         D2E/DX2 =    0.1036             !
 ! A14   A(2,6,76)             108.5179         D2E/DX2 =    0.0432             !
 ! A15   A(2,6,77)             109.0167         D2E/DX2 =    0.0466             !
 ! A16   A(8,6,76)             109.3742         D2E/DX2 =    0.0451             !
 ! A17   A(8,6,77)             109.4699         D2E/DX2 =    0.0444             !
 ! A18   A(76,6,77)            106.2144         D2E/DX2 =    0.0167             !
 ! A19   A(6,8,9)              109.0346         D2E/DX2 =    0.0452             !
 ! A20   A(6,8,10)             109.8553         D2E/DX2 =    0.0466             !
 ! A21   A(6,8,11)             112.7291         D2E/DX2 =    0.1195             !
 ! A22   A(9,8,10)             106.1296         D2E/DX2 =    0.0178             !
 ! A23   A(9,8,11)             109.4602         D2E/DX2 =    0.0453             !
 ! A24   A(10,8,11)            109.4159         D2E/DX2 =    0.0464             !
 ! A25   A(8,11,12)            114.0312         D2E/DX2 =    0.104              !
 ! A26   A(8,11,74)            109.3351         D2E/DX2 =    0.0451             !
 ! A27   A(8,11,75)            109.5322         D2E/DX2 =    0.045              !
 ! A28   A(12,11,74)           109.207          D2E/DX2 =    0.0459             !
 ! A29   A(12,11,75)           108.0515         D2E/DX2 =    0.0438             !
 ! A30   A(74,11,75)           106.4006         D2E/DX2 =    0.0168             !
 ! A31   A(11,12,13)           107.1171         D2E/DX2 =    0.023              !
 ! A32   A(11,12,14)           110.907          D2E/DX2 =    0.0727             !
 ! A33   A(11,12,28)           111.7566         D2E/DX2 =    0.0408             !
 ! A34   A(13,12,14)           107.6395         D2E/DX2 =    0.0236             !
 ! A35   A(13,12,28)           106.9168         D2E/DX2 =    0.022              !
 ! A36   A(14,12,28)           112.2003         D2E/DX2 =    0.0582             !
 ! A37   A(12,14,15)           111.1711         D2E/DX2 =    0.1025             !
 ! A38   A(12,14,16)           111.3272         D2E/DX2 =    0.1035             !
 ! A39   A(12,14,17)           110.4527         D2E/DX2 =    0.1028             !
 ! A40   A(15,14,16)           107.8921         D2E/DX2 =    0.052              !
 ! A41   A(15,14,17)           108.2874         D2E/DX2 =    0.0506             !
 ! A42   A(16,14,17)           107.5711         D2E/DX2 =    0.0517             !
 ! A43   A(2,18,19)            120.6957         D2E/DX2 =    0.1087             !
 ! A44   A(2,18,20)            121.1147         D2E/DX2 =    0.1095             !
 ! A45   A(19,18,20)           118.0693         D2E/DX2 =    0.0841             !
 ! A46   A(18,19,21)           120.9818         D2E/DX2 =    0.0804             !
 ! A47   A(18,19,22)           119.9872         D2E/DX2 =    0.0815             !
 ! A48   A(21,19,22)           118.9709         D2E/DX2 =    0.0832             !
 ! A49   A(18,20,23)           121.1717         D2E/DX2 =    0.0812             !
 ! A50   A(18,20,24)           119.4648         D2E/DX2 =    0.0819             !
 ! A51   A(23,20,24)           119.2984         D2E/DX2 =    0.0832             !
 ! A52   A(19,21,25)           120.6804         D2E/DX2 =    0.0807             !
 ! A53   A(19,21,26)           119.5282         D2E/DX2 =    0.0839             !
 ! A54   A(25,21,26)           119.6967         D2E/DX2 =    0.0835             !
 ! A55   A(20,23,25)           120.4903         D2E/DX2 =    0.0811             !
 ! A56   A(20,23,27)           119.6283         D2E/DX2 =    0.0842             !
 ! A57   A(25,23,27)           119.7092         D2E/DX2 =    0.0832             !
 ! A58   A(21,25,23)           118.5976         D2E/DX2 =    0.0847             !
 ! A59   A(21,25,41)           120.8033         D2E/DX2 =    0.1092             !
 ! A60   A(23,25,41)           120.133          D2E/DX2 =    0.1079             !
 ! A61   A(12,28,29)           121.4674         D2E/DX2 =    0.1081             !
 ! A62   A(12,28,30)           120.4079         D2E/DX2 =    0.1094             !
 ! A63   A(29,28,30)           118.0656         D2E/DX2 =    0.084              !
 ! A64   A(28,29,31)           120.9837         D2E/DX2 =    0.0801             !
 ! A65   A(28,29,32)           120.1625         D2E/DX2 =    0.0814             !
 ! A66   A(31,29,32)           118.8242         D2E/DX2 =    0.0832             !
 ! A67   A(28,30,33)           121.1461         D2E/DX2 =    0.0811             !
 ! A68   A(28,30,34)           119.3844         D2E/DX2 =    0.0819             !
 ! A69   A(33,30,34)           119.4396         D2E/DX2 =    0.0831             !
 ! A70   A(29,31,35)           120.5784         D2E/DX2 =    0.0805             !
 ! A71   A(29,31,36)           119.7254         D2E/DX2 =    0.0845             !
 ! A72   A(35,31,36)           119.6163         D2E/DX2 =    0.0835             !
 ! A73   A(30,33,35)           120.4481         D2E/DX2 =    0.0805             !
 ! A74   A(30,33,37)           119.8189         D2E/DX2 =    0.0845             !
 ! A75   A(35,33,37)           119.6468         D2E/DX2 =    0.0835             !
 ! A76   A(31,35,33)           118.7275         D2E/DX2 =    0.0847             !
 ! A77   A(31,35,38)           120.5782         D2E/DX2 =    0.1065             !
 ! A78   A(33,35,38)           120.4981         D2E/DX2 =    0.1085             !
 ! A79   A(35,38,39)           110.6786         D2E/DX2 =    0.0337             !
 ! A80   A(35,38,40)           111.2612         D2E/DX2 =    0.0342             !
 ! A81   A(35,38,68)           115.0004         D2E/DX2 =    0.0601             !
 ! A82   A(39,38,40)           109.3874         D2E/DX2 =    0.0153             !
 ! A83   A(39,38,68)           106.1755         D2E/DX2 =    0.0405             !
 ! A84   A(40,38,68)           103.9687         D2E/DX2 =    0.0379             !
 ! A85   A(25,41,42)           110.0403         D2E/DX2 =    0.031              !
 ! A86   A(25,41,43)           110.5107         D2E/DX2 =    0.0286             !
 ! A87   A(25,41,69)           116.466          D2E/DX2 =    0.0787             !
 ! A88   A(42,41,43)           109.6414         D2E/DX2 =    0.0169             !
 ! A89   A(42,41,69)           104.5328         D2E/DX2 =    0.0425             !
 ! A90   A(43,41,69)           105.3174         D2E/DX2 =    0.0598             !
 ! A91   A(41,42,84)           156.7038         D2E/DX2 =    0.25               !
 ! A92   A(41,43,80)           147.4213         D2E/DX2 =    0.16               !
 ! A93   A(45,44,46)           110.325          D2E/DX2 =    0.0196             !
 ! A94   A(45,44,47)           110.4407         D2E/DX2 =    0.031              !
 ! A95   A(45,44,68)           108.8207         D2E/DX2 =    0.047              !
 ! A96   A(46,44,47)           109.5349         D2E/DX2 =    0.0311             !
 ! A97   A(46,44,68)           108.584          D2E/DX2 =    0.0502             !
 ! A98   A(47,44,68)           109.0973         D2E/DX2 =    0.0567             !
 ! A99   A(44,47,94)           161.6621         D2E/DX2 =    0.0137             !
 ! A100  A(49,48,50)           109.6389         D2E/DX2 =    0.0532             !
 ! A101  A(49,48,51)           110.3213         D2E/DX2 =    0.0517             !
 ! A102  A(49,48,68)           109.1744         D2E/DX2 =    0.1262             !
 ! A103  A(50,48,51)           110.2005         D2E/DX2 =    0.0515             !
 ! A104  A(50,48,68)           108.7764         D2E/DX2 =    0.1249             !
 ! A105  A(51,48,68)           108.6965         D2E/DX2 =    0.1274             !
 ! A106  A(53,52,54)           110.7515         D2E/DX2 =    0.0541             !
 ! A107  A(53,52,55)           111.0345         D2E/DX2 =    0.0536             !
 ! A108  A(53,52,68)           107.8134         D2E/DX2 =    0.1328             !
 ! A109  A(54,52,55)           110.1742         D2E/DX2 =    0.0517             !
 ! A110  A(54,52,68)           108.5268         D2E/DX2 =    0.1276             !
 ! A111  A(55,52,68)           108.4461         D2E/DX2 =    0.1274             !
 ! A112  A(52,53,93)           156.0037         D2E/DX2 =    0.25               !
 ! A113  A(57,56,58)           110.4658         D2E/DX2 =    0.0511             !
 ! A114  A(57,56,59)           110.8874         D2E/DX2 =    0.0516             !
 ! A115  A(57,56,69)           108.436          D2E/DX2 =    0.1265             !
 ! A116  A(58,56,59)           109.4146         D2E/DX2 =    0.0526             !
 ! A117  A(58,56,69)           109.4181         D2E/DX2 =    0.1276             !
 ! A118  A(59,56,69)           108.1707         D2E/DX2 =    0.1289             !
 ! A119  A(61,60,62)           110.3348         D2E/DX2 =    0.0517             !
 ! A120  A(61,60,63)           110.3566         D2E/DX2 =    0.0523             !
 ! A121  A(61,60,69)           108.9258         D2E/DX2 =    0.128              !
 ! A122  A(62,60,63)           110.1286         D2E/DX2 =    0.0534             !
 ! A123  A(62,60,69)           108.9565         D2E/DX2 =    0.1266             !
 ! A124  A(63,60,69)           108.0857         D2E/DX2 =    0.1284             !
 ! A125  A(65,64,66)           110.3319         D2E/DX2 =    0.0542             !
 ! A126  A(65,64,67)           110.0933         D2E/DX2 =    0.0515             !
 ! A127  A(65,64,69)           109.0688         D2E/DX2 =    0.1262             !
 ! A128  A(66,64,67)           110.7687         D2E/DX2 =    0.0526             !
 ! A129  A(66,64,69)           107.9705         D2E/DX2 =    0.1303             !
 ! A130  A(67,64,69)           108.546          D2E/DX2 =    0.1279             !
 ! A131  A(38,68,44)           106.8367         D2E/DX2 =    0.0261             !
 ! A132  A(38,68,48)           111.2615         D2E/DX2 =    0.0314             !
 ! A133  A(38,68,52)           109.9992         D2E/DX2 =    0.0311             !
 ! A134  A(44,68,48)           109.3844         D2E/DX2 =    0.031              !
 ! A135  A(44,68,52)           109.1153         D2E/DX2 =    0.0307             !
 ! A136  A(48,68,52)           110.164          D2E/DX2 =    0.0323             !
 ! A137  A(41,69,56)           106.6644         D2E/DX2 =    0.0395             !
 ! A138  A(41,69,60)           110.0373         D2E/DX2 =    0.036              !
 ! A139  A(41,69,64)           110.8239         D2E/DX2 =    0.0389             !
 ! A140  A(56,69,60)           109.3956         D2E/DX2 =    0.0332             !
 ! A141  A(56,69,64)           108.9776         D2E/DX2 =    0.0345             !
 ! A142  A(60,69,64)           110.8375         D2E/DX2 =    0.0347             !
 ! A143  A(71,70,72)           121.682          D2E/DX2 =    0.0456             !
 ! A144  A(71,70,73)           120.296          D2E/DX2 =    0.0626             !
 ! A145  A(72,70,73)           118.0207         D2E/DX2 =    0.0787             !
 ! A146  A(70,71,98)           121.0461         D2E/DX2 =    0.0194             !
 ! A147  A(70,72,85)           108.5915         D2E/DX2 =    0.0107             !
 ! A148  A(70,72,89)           104.0437         D2E/DX2 =    0.0183             !
 ! A149  A(70,72,95)           111.6617         D2E/DX2 =    0.0134             !
 ! A150  A(85,72,89)            75.3254         D2E/DX2 =    0.0086             !
 ! A151  A(85,72,95)           135.2661         D2E/DX2 =    0.0171             !
 ! A152  A(89,72,95)           111.9892         D2E/DX2 =    0.0104             !
 ! A153  A(70,73,80)           123.0958         D2E/DX2 =    0.0272             !
 ! A154  A(70,73,83)           103.9844         D2E/DX2 =    0.0232             !
 ! A155  A(70,73,91)           117.9009         D2E/DX2 =    0.0261             !
 ! A156  A(80,73,83)           109.968          D2E/DX2 =    0.015              !
 ! A157  A(80,73,91)           114.0628         D2E/DX2 =    0.0215             !
 ! A158  A(83,73,91)            75.4802         D2E/DX2 =    0.013              !
 ! A159  A(79,78,80)           105.5364         D2E/DX2 =    0.0536             !
 ! A160  A(43,80,73)            89.4332         D2E/DX2 =    0.16               !
 ! A161  A(43,80,78)            87.1439         D2E/DX2 =    0.16               !
 ! A162  A(82,81,83)           103.0116         D2E/DX2 =    0.1798             !
 ! A163  A(42,84,86)            89.6661         D2E/DX2 =    0.16               !
 ! A164  A(85,84,86)           100.1406         D2E/DX2 =    0.0356             !
 ! A165  A(42,85,72)            85.8382         D2E/DX2 =    0.0102             !
 ! A166  A(72,85,84)           145.9718         D2E/DX2 =    0.0175             !
 ! A167  A(84,86,87)           147.2688         D2E/DX2 =    0.0174             !
 ! A168  A(84,86,89)           120.3197         D2E/DX2 =    0.0213             !
 ! A169  A(86,87,88)           109.5724         D2E/DX2 =    0.0104             !
 ! A170  A(88,87,89)            99.9702         D2E/DX2 =    0.0452             !
 ! A171  A(72,89,86)            95.0414         D2E/DX2 =    0.0127             !
 ! A172  A(72,89,87)           161.5392         D2E/DX2 =    0.019              !
 ! A173  A(91,90,92)           103.3665         D2E/DX2 =    0.0306             !
 ! A174  A(53,93,94)           114.0941         D2E/DX2 =    0.16               !
 ! A175  A(53,93,95)           119.5187         D2E/DX2 =    0.16               !
 ! A176  A(94,93,95)           101.7907         D2E/DX2 =    0.0538             !
 ! A177  A(47,94,93)           100.019          D2E/DX2 =    0.0084             !
 ! A178  A(72,95,93)           164.4145         D2E/DX2 =    0.0352             !
 ! A179  A(97,96,98)           102.1873         D2E/DX2 =    0.0721             !
 ! A180  L(41,42,85,6,-1)      185.448          D2E/DX2 =    0.0023             !
 ! A181  L(73,80,78,43,-1)     176.5771         D2E/DX2 =    0.0101             !
 ! A182  L(73,83,81,26,-1)     179.9933         D2E/DX2 =    0.0129             !
 ! A183  L(73,91,90,40,-1)     181.6099         D2E/DX2 =    0.0122             !
 ! A184  L(71,98,96,1,-1)      186.1997         D2E/DX2 =    0.0125             !
 ! A185  L(41,42,85,6,-2)      179.4977         D2E/DX2 =    0.0023             !
 ! A186  L(73,80,78,43,-2)     175.5613         D2E/DX2 =    0.0101             !
 ! A187  L(73,83,81,26,-2)     179.9904         D2E/DX2 =    0.0129             !
 ! A188  L(73,91,90,40,-2)     182.441          D2E/DX2 =    0.0122             !
 ! A189  L(71,98,96,1,-2)      179.077          D2E/DX2 =    0.0125             !
 ! D1    D(3,1,2,6)           -179.6749         D2E/DX2 =    0.0137             !
 ! D2    D(3,1,2,7)            -62.0896         D2E/DX2 =    0.0129             !
 ! D3    D(3,1,2,18)            55.7526         D2E/DX2 =    0.0137             !
 ! D4    D(4,1,2,6)            -59.373          D2E/DX2 =    0.0135             !
 ! D5    D(4,1,2,7)             58.2124         D2E/DX2 =    0.0131             !
 ! D6    D(4,1,2,18)           176.0545         D2E/DX2 =    0.014              !
 ! D7    D(5,1,2,6)             60.1241         D2E/DX2 =    0.0135             !
 ! D8    D(5,1,2,7)            177.7095         D2E/DX2 =    0.0126             !
 ! D9    D(5,1,2,18)           -64.4484         D2E/DX2 =    0.0139             !
 ! D10   D(1,2,6,8)            173.1349         D2E/DX2 =    0.0188             !
 ! D11   D(1,2,6,76)            51.0177         D2E/DX2 =    0.0166             !
 ! D12   D(1,2,6,77)           -64.2544         D2E/DX2 =    0.0162             !
 ! D13   D(7,2,6,8)             55.3531         D2E/DX2 =    0.0135             !
 ! D14   D(7,2,6,76)           -66.7642         D2E/DX2 =    0.0138             !
 ! D15   D(7,2,6,77)           177.9637         D2E/DX2 =    0.0133             !
 ! D16   D(18,2,6,8)           -61.6371         D2E/DX2 =    0.0152             !
 ! D17   D(18,2,6,76)          176.2456         D2E/DX2 =    0.0167             !
 ! D18   D(18,2,6,77)           60.9735         D2E/DX2 =    0.0159             !
 ! D19   D(1,2,18,19)           60.0073         D2E/DX2 =    0.0147             !
 ! D20   D(1,2,18,20)         -124.0585         D2E/DX2 =    0.0145             !
 ! D21   D(6,2,18,19)          -64.6701         D2E/DX2 =    0.0149             !
 ! D22   D(6,2,18,20)          111.2641         D2E/DX2 =    0.0145             !
 ! D23   D(7,2,18,19)          178.1884         D2E/DX2 =    0.0101             !
 ! D24   D(7,2,18,20)           -5.8774         D2E/DX2 =    0.0095             !
 ! D25   D(2,6,8,9)            -61.5056         D2E/DX2 =    0.0148             !
 ! D26   D(2,6,8,10)            54.4096         D2E/DX2 =    0.0157             !
 ! D27   D(2,6,8,11)           176.7171         D2E/DX2 =    0.016              !
 ! D28   D(76,6,8,9)            60.1391         D2E/DX2 =    0.0158             !
 ! D29   D(76,6,8,10)          176.0542         D2E/DX2 =    0.0153             !
 ! D30   D(76,6,8,11)          -61.6382         D2E/DX2 =    0.0153             !
 ! D31   D(77,6,8,9)           176.1323         D2E/DX2 =    0.0149             !
 ! D32   D(77,6,8,10)          -67.9526         D2E/DX2 =    0.0157             !
 ! D33   D(77,6,8,11)           54.355          D2E/DX2 =    0.0159             !
 ! D34   D(6,8,11,12)          171.3692         D2E/DX2 =    0.0158             !
 ! D35   D(6,8,11,74)          -66.0706         D2E/DX2 =    0.0157             !
 ! D36   D(6,8,11,75)           50.1594         D2E/DX2 =    0.0152             !
 ! D37   D(9,8,11,12)           49.833          D2E/DX2 =    0.0149             !
 ! D38   D(9,8,11,74)          172.3932         D2E/DX2 =    0.0149             !
 ! D39   D(9,8,11,75)          -71.3768         D2E/DX2 =    0.0158             !
 ! D40   D(10,8,11,12)         -66.0765         D2E/DX2 =    0.0157             !
 ! D41   D(10,8,11,74)          56.4838         D2E/DX2 =    0.0157             !
 ! D42   D(10,8,11,75)         172.7137         D2E/DX2 =    0.0152             !
 ! D43   D(8,11,12,13)         -58.373          D2E/DX2 =    0.0137             !
 ! D44   D(8,11,12,14)        -175.5708         D2E/DX2 =    0.0194             !
 ! D45   D(8,11,12,28)          58.4174         D2E/DX2 =    0.0162             !
 ! D46   D(74,11,12,13)        178.9967         D2E/DX2 =    0.0133             !
 ! D47   D(74,11,12,14)         61.7989         D2E/DX2 =    0.0165             !
 ! D48   D(74,11,12,28)        -64.2129         D2E/DX2 =    0.0164             !
 ! D49   D(75,11,12,13)         63.6552         D2E/DX2 =    0.0139             !
 ! D50   D(75,11,12,14)        -53.5426         D2E/DX2 =    0.0169             !
 ! D51   D(75,11,12,28)       -179.5544         D2E/DX2 =    0.0168             !
 ! D52   D(11,12,14,15)        179.4419         D2E/DX2 =    0.0135             !
 ! D53   D(11,12,14,16)        -60.2337         D2E/DX2 =    0.0134             !
 ! D54   D(11,12,14,17)         59.2053         D2E/DX2 =    0.0134             !
 ! D55   D(13,12,14,15)         62.5645         D2E/DX2 =    0.0129             !
 ! D56   D(13,12,14,16)       -177.1111         D2E/DX2 =    0.0127             !
 ! D57   D(13,12,14,17)        -57.6721         D2E/DX2 =    0.0131             !
 ! D58   D(28,12,14,15)        -54.7937         D2E/DX2 =    0.0136             !
 ! D59   D(28,12,14,16)         65.5306         D2E/DX2 =    0.0137             !
 ! D60   D(28,12,14,17)       -175.0304         D2E/DX2 =    0.0137             !
 ! D61   D(11,12,28,29)         71.4354         D2E/DX2 =    0.0144             !
 ! D62   D(11,12,28,30)       -105.7147         D2E/DX2 =    0.0135             !
 ! D63   D(13,12,28,29)       -171.653          D2E/DX2 =    0.0105             !
 ! D64   D(13,12,28,30)         11.1968         D2E/DX2 =    0.0095             !
 ! D65   D(14,12,28,29)        -53.8643         D2E/DX2 =    0.0148             !
 ! D66   D(14,12,28,30)        128.9856         D2E/DX2 =    0.0145             !
 ! D67   D(2,18,19,21)         174.974          D2E/DX2 =    0.0093             !
 ! D68   D(2,18,19,22)          -2.1774         D2E/DX2 =    0.0083             !
 ! D69   D(20,18,19,21)         -1.0813         D2E/DX2 =    0.0077             !
 ! D70   D(20,18,19,22)       -178.2327         D2E/DX2 =    0.0072             !
 ! D71   D(2,18,20,23)        -175.0606         D2E/DX2 =    0.0098             !
 ! D72   D(2,18,20,24)           1.9853         D2E/DX2 =    0.0082             !
 ! D73   D(19,18,20,23)          0.9774         D2E/DX2 =    0.0079             !
 ! D74   D(19,18,20,24)        178.0232         D2E/DX2 =    0.0071             !
 ! D75   D(18,19,21,25)          0.7685         D2E/DX2 =    0.009              !
 ! D76   D(18,19,21,26)       -175.6846         D2E/DX2 =    0.0088             !
 ! D77   D(22,19,21,25)        177.9483         D2E/DX2 =    0.0089             !
 ! D78   D(22,19,21,26)          1.4952         D2E/DX2 =    0.0092             !
 ! D79   D(18,20,23,25)         -0.5579         D2E/DX2 =    0.009              !
 ! D80   D(18,20,23,27)        174.6595         D2E/DX2 =    0.0086             !
 ! D81   D(24,20,23,25)       -177.6085         D2E/DX2 =    0.0086             !
 ! D82   D(24,20,23,27)         -2.3911         D2E/DX2 =    0.009              !
 ! D83   D(19,21,25,23)         -0.3145         D2E/DX2 =    0.0083             !
 ! D84   D(19,21,25,41)       -172.4915         D2E/DX2 =    0.0098             !
 ! D85   D(26,21,25,23)        176.1327         D2E/DX2 =    0.0076             !
 ! D86   D(26,21,25,41)          3.9557         D2E/DX2 =    0.0085             !
 ! D87   D(20,23,25,21)          0.2088         D2E/DX2 =    0.0081             !
 ! D88   D(20,23,25,41)        172.4397         D2E/DX2 =    0.0097             !
 ! D89   D(27,23,25,21)       -175.0048         D2E/DX2 =    0.007              !
 ! D90   D(27,23,25,41)         -2.7738         D2E/DX2 =    0.0082             !
 ! D91   D(21,25,41,42)         33.3875         D2E/DX2 =    0.012              !
 ! D92   D(21,25,41,43)        154.6173         D2E/DX2 =    0.0108             !
 ! D93   D(21,25,41,69)        -85.2962         D2E/DX2 =    0.0191             !
 ! D94   D(23,25,41,42)       -138.6698         D2E/DX2 =    0.0119             !
 ! D95   D(23,25,41,43)        -17.44           D2E/DX2 =    0.0108             !
 ! D96   D(23,25,41,69)        102.6465         D2E/DX2 =    0.0181             !
 ! D97   D(12,28,29,31)       -178.5426         D2E/DX2 =    0.0105             !
 ! D98   D(12,28,29,32)         -0.547          D2E/DX2 =    0.0085             !
 ! D99   D(30,28,29,31)         -1.3279         D2E/DX2 =    0.008              !
 ! D100  D(30,28,29,32)        176.6677         D2E/DX2 =    0.0072             !
 ! D101  D(12,28,30,33)        177.7939         D2E/DX2 =    0.0102             !
 ! D102  D(12,28,30,34)         -0.2033         D2E/DX2 =    0.0085             !
 ! D103  D(29,28,30,33)          0.5484         D2E/DX2 =    0.008              !
 ! D104  D(29,28,30,34)       -177.4487         D2E/DX2 =    0.0071             !
 ! D105  D(28,29,31,35)          0.1468         D2E/DX2 =    0.0088             !
 ! D106  D(28,29,31,36)        176.885          D2E/DX2 =    0.009              !
 ! D107  D(32,29,31,35)       -177.8751         D2E/DX2 =    0.009              !
 ! D108  D(32,29,31,36)         -1.1369         D2E/DX2 =    0.0091             !
 ! D109  D(28,30,33,35)          1.422          D2E/DX2 =    0.0089             !
 ! D110  D(28,30,33,37)       -175.1903         D2E/DX2 =    0.0088             !
 ! D111  D(34,30,33,35)        179.4181         D2E/DX2 =    0.009              !
 ! D112  D(34,30,33,37)          2.8058         D2E/DX2 =    0.009              !
 ! D113  D(29,31,35,33)          1.8127         D2E/DX2 =    0.0087             !
 ! D114  D(29,31,35,38)        176.7478         D2E/DX2 =    0.0106             !
 ! D115  D(36,31,35,33)       -174.9291         D2E/DX2 =    0.0074             !
 ! D116  D(36,31,35,38)          0.006          D2E/DX2 =    0.0085             !
 ! D117  D(30,33,35,31)         -2.5848         D2E/DX2 =    0.0089             !
 ! D118  D(30,33,35,38)       -177.5241         D2E/DX2 =    0.0111             !
 ! D119  D(37,33,35,31)        174.0333         D2E/DX2 =    0.0073             !
 ! D120  D(37,33,35,38)         -0.906          D2E/DX2 =    0.0086             !
 ! D121  D(31,35,38,39)       -144.4123         D2E/DX2 =    0.0118             !
 ! D122  D(31,35,38,40)        -22.5696         D2E/DX2 =    0.0094             !
 ! D123  D(31,35,38,68)         95.286          D2E/DX2 =    0.0135             !
 ! D124  D(33,35,38,39)         30.4328         D2E/DX2 =    0.012              !
 ! D125  D(33,35,38,40)        152.2755         D2E/DX2 =    0.0089             !
 ! D126  D(33,35,38,68)        -89.8689         D2E/DX2 =    0.0131             !
 ! D127  D(35,38,68,44)        176.2178         D2E/DX2 =    0.0178             !
 ! D128  D(35,38,68,48)         56.8872         D2E/DX2 =    0.0159             !
 ! D129  D(35,38,68,52)        -65.473          D2E/DX2 =    0.0172             !
 ! D130  D(39,38,68,44)         53.4692         D2E/DX2 =    0.0145             !
 ! D131  D(39,38,68,48)        -65.8613         D2E/DX2 =    0.0132             !
 ! D132  D(39,38,68,52)        171.7785         D2E/DX2 =    0.0155             !
 ! D133  D(40,38,68,44)        -61.8918         D2E/DX2 =    0.0129             !
 ! D134  D(40,38,68,48)        178.7776         D2E/DX2 =    0.0154             !
 ! D135  D(40,38,68,52)         56.4175         D2E/DX2 =    0.0175             !
 ! D136  D(25,41,42,84)        -68.0253         D2E/DX2 =    0.0031             !
 ! D137  D(43,41,42,84)        170.2262         D2E/DX2 =    0.0031             !
 ! D138  D(69,41,42,84)         57.7515         D2E/DX2 =    0.0031             !
 ! D139  D(25,41,43,80)       -154.3017         D2E/DX2 =    0.0034             !
 ! D140  D(42,41,43,80)        -32.8357         D2E/DX2 =    0.0034             !
 ! D141  D(69,41,43,80)         79.1271         D2E/DX2 =    0.0034             !
 ! D142  D(25,41,69,56)        179.4016         D2E/DX2 =    0.0159             !
 ! D143  D(25,41,69,60)        -62.0337         D2E/DX2 =    0.0143             !
 ! D144  D(25,41,69,64)         60.91           D2E/DX2 =    0.0139             !
 ! D145  D(42,41,69,56)         57.7666         D2E/DX2 =    0.0141             !
 ! D146  D(42,41,69,60)        176.3313         D2E/DX2 =    0.0123             !
 ! D147  D(42,41,69,64)        -60.725          D2E/DX2 =    0.0129             !
 ! D148  D(43,41,69,56)        -57.7666         D2E/DX2 =    0.0152             !
 ! D149  D(43,41,69,60)         60.7981         D2E/DX2 =    0.0124             !
 ! D150  D(43,41,69,64)       -176.2582         D2E/DX2 =    0.013              !
 ! D151  D(25,41,85,72)         93.3724         D2E/DX2 =    0.0023             !
 ! D152  D(43,41,85,72)        -29.6696         D2E/DX2 =    0.0023             !
 ! D153  D(69,41,85,72)       -140.3781         D2E/DX2 =    0.0023             !
 ! D154  D(41,42,84,86)         91.9245         D2E/DX2 =    0.0023             !
 ! D155  D(41,43,80,73)         44.3158         D2E/DX2 =    0.0023             !
 ! D156  D(41,43,80,78)       -131.2455         D2E/DX2 =    0.0023             !
 ! D157  D(45,44,47,94)       -101.2541         D2E/DX2 =    0.0153             !
 ! D158  D(46,44,47,94)        137.0398         D2E/DX2 =    0.0163             !
 ! D159  D(68,44,47,94)         18.3088         D2E/DX2 =    0.0121             !
 ! D160  D(45,44,68,38)        178.3201         D2E/DX2 =    0.0164             !
 ! D161  D(45,44,68,48)        -61.1419         D2E/DX2 =    0.0161             !
 ! D162  D(45,44,68,52)         59.4348         D2E/DX2 =    0.0168             !
 ! D163  D(46,44,68,38)        -61.5641         D2E/DX2 =    0.016              !
 ! D164  D(46,44,68,48)         58.9739         D2E/DX2 =    0.0151             !
 ! D165  D(46,44,68,52)        179.5507         D2E/DX2 =    0.0172             !
 ! D166  D(47,44,68,38)         57.7589         D2E/DX2 =    0.0162             !
 ! D167  D(47,44,68,48)        178.2969         D2E/DX2 =    0.019              !
 ! D168  D(47,44,68,52)        -61.1264         D2E/DX2 =    0.0207             !
 ! D169  D(44,47,94,93)         -6.0001         D2E/DX2 =    0.0083             !
 ! D170  D(49,48,68,38)        -64.0392         D2E/DX2 =    0.0135             !
 ! D171  D(49,48,68,44)        178.1609         D2E/DX2 =    0.0143             !
 ! D172  D(49,48,68,52)         58.2257         D2E/DX2 =    0.014              !
 ! D173  D(50,48,68,38)         55.568          D2E/DX2 =    0.0132             !
 ! D174  D(50,48,68,44)        -62.2319         D2E/DX2 =    0.0139             !
 ! D175  D(50,48,68,52)        177.8329         D2E/DX2 =    0.014              !
 ! D176  D(51,48,68,38)        175.5735         D2E/DX2 =    0.0134             !
 ! D177  D(51,48,68,44)         57.7736         D2E/DX2 =    0.014              !
 ! D178  D(51,48,68,52)        -62.1616         D2E/DX2 =    0.0139             !
 ! D179  D(54,52,53,93)       -114.628          D2E/DX2 =    0.0023             !
 ! D180  D(55,52,53,93)        122.6312         D2E/DX2 =    0.0023             !
 ! D181  D(68,52,53,93)          3.9694         D2E/DX2 =    0.0023             !
 ! D182  D(53,52,68,38)        -57.6679         D2E/DX2 =    0.015              !
 ! D183  D(53,52,68,44)         59.2272         D2E/DX2 =    0.0154             !
 ! D184  D(53,52,68,48)        179.325          D2E/DX2 =    0.0146             !
 ! D185  D(54,52,68,38)         62.3439         D2E/DX2 =    0.0142             !
 ! D186  D(54,52,68,44)        179.2391         D2E/DX2 =    0.015              !
 ! D187  D(54,52,68,48)        -60.6631         D2E/DX2 =    0.0143             !
 ! D188  D(55,52,68,38)       -177.9728         D2E/DX2 =    0.0139             !
 ! D189  D(55,52,68,44)        -61.0777         D2E/DX2 =    0.0145             !
 ! D190  D(55,52,68,48)         59.0201         D2E/DX2 =    0.014              !
 ! D191  D(52,53,93,94)        -58.1826         D2E/DX2 =    0.0023             !
 ! D192  D(52,53,93,95)         62.51           D2E/DX2 =    0.0023             !
 ! D193  D(57,56,69,41)        179.8707         D2E/DX2 =    0.0171             !
 ! D194  D(57,56,69,60)         60.8872         D2E/DX2 =    0.0149             !
 ! D195  D(57,56,69,64)        -60.4364         D2E/DX2 =    0.0155             !
 ! D196  D(58,56,69,41)        -59.5783         D2E/DX2 =    0.0174             !
 ! D197  D(58,56,69,60)       -178.5619         D2E/DX2 =    0.0156             !
 ! D198  D(58,56,69,64)         60.1145         D2E/DX2 =    0.0158             !
 ! D199  D(59,56,69,41)         59.5422         D2E/DX2 =    0.018              !
 ! D200  D(59,56,69,60)        -59.4414         D2E/DX2 =    0.0155             !
 ! D201  D(59,56,69,64)        179.235          D2E/DX2 =    0.0156             !
 ! D202  D(61,60,69,41)       -178.2849         D2E/DX2 =    0.0167             !
 ! D203  D(61,60,69,56)        -61.4123         D2E/DX2 =    0.0162             !
 ! D204  D(61,60,69,64)         58.7794         D2E/DX2 =    0.0145             !
 ! D205  D(62,60,69,41)         61.3038         D2E/DX2 =    0.0168             !
 ! D206  D(62,60,69,56)        178.1764         D2E/DX2 =    0.0166             !
 ! D207  D(62,60,69,64)        -61.6318         D2E/DX2 =    0.0147             !
 ! D208  D(63,60,69,41)        -58.3623         D2E/DX2 =    0.017              !
 ! D209  D(63,60,69,56)         58.5103         D2E/DX2 =    0.0164             !
 ! D210  D(63,60,69,64)        178.7021         D2E/DX2 =    0.015              !
 ! D211  D(65,64,69,41)        -65.9457         D2E/DX2 =    0.016              !
 ! D212  D(65,64,69,56)        176.9741         D2E/DX2 =    0.0159             !
 ! D213  D(65,64,69,60)         56.5337         D2E/DX2 =    0.0143             !
 ! D214  D(66,64,69,41)         53.962          D2E/DX2 =    0.0168             !
 ! D215  D(66,64,69,56)        -63.1182         D2E/DX2 =    0.0163             !
 ! D216  D(66,64,69,60)        176.4413         D2E/DX2 =    0.0151             !
 ! D217  D(67,64,69,41)        174.0956         D2E/DX2 =    0.0156             !
 ! D218  D(67,64,69,56)         57.0154         D2E/DX2 =    0.0156             !
 ! D219  D(67,64,69,60)        -63.425          D2E/DX2 =    0.0141             !
 ! D220  D(72,70,71,98)       -164.5209         D2E/DX2 =    0.0063             !
 ! D221  D(73,70,71,98)         15.9222         D2E/DX2 =    0.0072             !
 ! D222  D(71,70,72,85)        -89.8086         D2E/DX2 =    0.0082             !
 ! D223  D(71,70,72,89)        -10.8414         D2E/DX2 =    0.0043             !
 ! D224  D(71,70,72,95)        110.1322         D2E/DX2 =    0.0118             !
 ! D225  D(73,70,72,85)         89.7579         D2E/DX2 =    0.0091             !
 ! D226  D(73,70,72,89)        168.7251         D2E/DX2 =    0.005              !
 ! D227  D(73,70,72,95)        -70.3012         D2E/DX2 =    0.0137             !
 ! D228  D(71,70,73,80)         21.5074         D2E/DX2 =    0.0061             !
 ! D229  D(71,70,73,83)        147.127          D2E/DX2 =    0.0121             !
 ! D230  D(71,70,73,91)       -132.1084         D2E/DX2 =    0.0071             !
 ! D231  D(72,70,73,80)       -158.0654         D2E/DX2 =    0.0066             !
 ! D232  D(72,70,73,83)        -32.4458         D2E/DX2 =    0.0129             !
 ! D233  D(72,70,73,91)         48.3188         D2E/DX2 =    0.0069             !
 ! D234  D(70,71,96,97)        -38.6898         D2E/DX2 =    0.0065             !
 ! D235  D(70,72,85,42)         14.2817         D2E/DX2 =    0.0119             !
 ! D236  D(70,72,85,84)         74.9723         D2E/DX2 =    0.0072             !
 ! D237  D(89,72,85,42)        -85.8883         D2E/DX2 =    0.0094             !
 ! D238  D(89,72,85,84)        -25.1977         D2E/DX2 =    0.004              !
 ! D239  D(95,72,85,42)        167.5154         D2E/DX2 =    0.0109             !
 ! D240  D(95,72,85,84)       -131.794          D2E/DX2 =    0.0045             !
 ! D241  D(70,72,89,86)        -99.7709         D2E/DX2 =    0.0069             !
 ! D242  D(70,72,89,87)        -52.4697         D2E/DX2 =    0.0034             !
 ! D243  D(85,72,89,86)          6.1446         D2E/DX2 =    0.002              !
 ! D244  D(85,72,89,87)         53.4458         D2E/DX2 =    0.0038             !
 ! D245  D(95,72,89,86)        139.4749         D2E/DX2 =    0.0109             !
 ! D246  D(95,72,89,87)       -173.2239         D2E/DX2 =    0.0072             !
 ! D247  D(70,72,95,93)         15.1161         D2E/DX2 =    0.0109             !
 ! D248  D(85,72,95,93)       -137.5429         D2E/DX2 =    0.0066             !
 ! D249  D(89,72,95,93)        131.3455         D2E/DX2 =    0.0075             !
 ! D250  D(70,73,80,43)         32.6838         D2E/DX2 =    0.0023             !
 ! D251  D(83,73,80,43)        -90.2539         D2E/DX2 =    0.0023             !
 ! D252  D(91,73,80,43)       -172.7906         D2E/DX2 =    0.0023             !
 ! D253  D(70,73,81,82)         32.4021         D2E/DX2 =    0.0023             !
 ! D254  D(80,73,81,82)        165.9682         D2E/DX2 =    0.0023             !
 ! D255  D(91,73,81,82)        -83.298          D2E/DX2 =    0.0023             !
 ! D256  D(70,73,90,92)       -110.6142         D2E/DX2 =    0.0023             !
 ! D257  D(80,73,90,92)         92.4931         D2E/DX2 =    0.0023             !
 ! D258  D(83,73,90,92)        -12.7512         D2E/DX2 =    0.0023             !
 ! D259  D(79,78,80,43)        166.8153         D2E/DX2 =    0.0101             !
 ! D260  D(86,84,85,72)         24.3983         D2E/DX2 =    0.0042             !
 ! D261  D(42,84,86,87)         60.2953         D2E/DX2 =    0.0143             !
 ! D262  D(42,84,86,89)         69.4039         D2E/DX2 =    0.0143             !
 ! D263  D(85,84,86,87)        -16.4487         D2E/DX2 =    0.009              !
 ! D264  D(85,84,86,89)         -7.3402         D2E/DX2 =    0.004              !
 ! D265  D(84,86,87,88)        -79.8801         D2E/DX2 =    0.0172             !
 ! D266  D(84,86,89,72)         -3.4906         D2E/DX2 =    0.0069             !
 ! D267  D(86,87,88,89)         82.4232         D2E/DX2 =    0.0154             !
 ! D268  D(88,87,89,72)         58.2121         D2E/DX2 =    0.003              !
 ! D269  D(53,93,94,47)         22.1498         D2E/DX2 =    0.0147             !
 ! D270  D(95,93,94,47)       -107.9944         D2E/DX2 =    0.0141             !
 ! D271  D(53,93,95,72)        -77.4079         D2E/DX2 =    0.0132             !
 ! D272  D(94,93,95,72)         49.2784         D2E/DX2 =    0.0253             !
 --------------------------------------------------------------------------------
 Trust Radius=3.00D-01 FncErr=1.00D-07 GrdErr=1.00D-06 EigMax=2.50D+02 EigMin=1.00D-04
 Number of steps in this run=    576 maximum allowed number of steps=    588.
 GradGradGradGradGradGradGradGradGradGradGradGradGradGradGradGradGradGrad

 Leave Link  103 at Mon Feb 26 09:40:51 2024, MaxMem=  1342177280 cpu:               1.0 elap:               0.1
 (Enter /packages/apps/gaussian/g16/g16/l202.exe)
 Stoichiometry    C28H58N2O10
 Framework group  C1[X(C28H58N2O10)]
 Deg. of freedom   288
 Full point group                 C1      NOp   1
 Largest Abelian subgroup         C1      NOp   1
 Largest concise Abelian subgroup C1      NOp   1
                         Standard orientation:                         
 ---------------------------------------------------------------------
 Center     Atomic      Atomic             Coordinates (Angstroms)
 Number     Number       Type             X           Y           Z
 ---------------------------------------------------------------------
      1          6           0       -6.165526    2.331388   -0.251632
      2          6           0       -5.120899    1.273902   -0.615377
      3          1           0       -6.068622    3.214073   -0.884137
      4          1           0       -7.173298    1.931846   -0.373317
      5          1           0       -6.059303    2.650046    0.786736
      6          6           0       -5.264792    0.027308    0.272335
      7          1           0       -5.302162    0.965066   -1.648961
      8          6           0       -4.366624   -1.133659   -0.140353
      9          1           0       -4.632829   -1.448009   -1.155567
     10          1           0       -3.328042   -0.800088   -0.188610
     11          6           0       -4.472813   -2.325515    0.804752
     12          6           0       -3.745965   -3.584582    0.308026
     13          1           0       -4.177678   -3.843499   -0.663383
     14          6           0       -3.988863   -4.763655    1.252461
     15          1           0       -3.482842   -5.662257    0.898681
     16          1           0       -3.624980   -4.547997    2.258126
     17          1           0       -5.055777   -4.978596    1.327315
     18          6           0       -3.710885    1.822470   -0.550409
     19          6           0       -3.200621    2.334070    0.641616
     20          6           0       -2.862448    1.754694   -1.649329
     21          6           0       -1.882372    2.741253    0.734981
     22          1           0       -3.825598    2.374421    1.524466
     23          6           0       -1.540046    2.163770   -1.561651
     24          1           0       -3.225738    1.331424   -2.577393
     25          6           0       -1.034629    2.664298   -0.368213
     26          1           0       -1.491869    3.068782    1.689075
     27          1           0       -0.877981    2.019892   -2.406508
     28          6           0       -2.270334   -3.328095    0.080367
     29          6           0       -1.391563   -3.141254    1.145753
     30          6           0       -1.766488   -3.214371   -1.211324
     31          6           0       -0.050585   -2.877878    0.925604
     32          1           0       -1.757574   -3.168503    2.163555
     33          6           0       -0.428378   -2.935073   -1.436489
     34          1           0       -2.438644   -3.314202   -2.054596
     35          6           0        0.450219   -2.790671   -0.369352
     36          1           0        0.603781   -2.686114    1.766247
     37          1           0       -0.074661   -2.774064   -2.446941
     38          6           0        1.884014   -2.434583   -0.608790
     39          1           0        1.984179   -1.825072   -1.504985
     40          1           0        2.303328   -1.902214    0.237127
     41          6           0        0.429966    2.944808   -0.230939
     42          1           0        0.780283    2.622406    0.743047
     43          1           0        0.987817    2.434904   -1.005173
     44          6           0        4.169638   -3.068834   -1.112624
     45          1           0        4.872239   -3.891551   -1.223962
     46          1           0        4.102135   -2.502370   -2.037445
     47          1           0        4.480029   -2.411740   -0.306354
     48          6           0        2.374316   -4.492487   -1.913841
     49          1           0        1.408588   -4.921767   -1.666469
     50          1           0        2.285727   -3.887235   -2.812634
     51          1           0        3.110544   -5.279104   -2.061871
     52          6           0        2.904162   -4.415158    0.465187
     53          1           0        3.247504   -3.746459    1.255227
     54          1           0        1.916149   -4.804753    0.693083
     55          1           0        3.604759   -5.233810    0.314606
     56          6           0        2.337029    4.432240   -0.146130
     57          1           0        2.671538    5.465411   -0.210961
     58          1           0        2.592478    4.009959    0.822913
     59          1           0        2.785117    3.829627   -0.932446
     60          6           0        0.507277    4.947705   -1.661372
     61          1           0        0.844223    5.980214   -1.719766
     62          1           0       -0.569409    4.893672   -1.796773
     63          1           0        1.009858    4.342612   -2.412660
     64          6           0        0.220300    5.207893    0.752934
     65          1           0       -0.853552    5.232576    0.593577
     66          1           0        0.450636    4.733090    1.705449
     67          1           0        0.626745    6.216023    0.716281
     68          7           0        2.822607   -3.625844   -0.797015
     69          7           0        0.852863    4.403627   -0.325209
     70          6           0        2.010613    0.435244    0.504366
     71          8           0        0.913091    0.194081   -0.069368
     72          8           0        2.154069    0.294490    1.775690
     73          8           0        3.042650    0.848867   -0.189688
     74          1           0       -4.078245   -2.045720    1.786601
     75          1           0       -5.526576   -2.579731    0.956159
     76          1           0       -6.309718   -0.296451    0.250035
     77          1           0       -5.052043    0.302095    1.310268
     78          8           0        2.809295    2.070589   -2.488038
     79          1           0        3.664253    2.028148   -2.914205
     80          1           0        2.907394    1.550759   -1.637478
     81          8           0        4.376962    2.508289    1.533580
     82          1           0        4.205803    2.113329    2.388969
     83          1           0        3.899432    1.914366    0.916664
     84          8           0        0.966094    2.650676    2.951572
     85          1           0        1.679741    2.053729    2.680652
     86          1           0        0.231652    2.020688    3.015756
     87          8           0       -0.482114    0.193975    2.547059
     88          1           0       -0.808685    0.198088    1.643067
     89          1           0        0.475304    0.057779    2.381192
     90          8           0        5.422756   -0.339277    0.259179
     91          1           0        4.547735    0.074522    0.073196
     92          1           0        5.914421    0.364338    0.685895
     93          8           0        3.856703   -1.839238    2.132832
     94          1           0        4.609327   -1.423791    1.690606
     95          1           0        3.216523   -1.101219    2.173437
     96          8           0        0.885015   -0.127481   -2.765393
     97          1           0        1.522547    0.547671   -3.020844
     98          1           0        0.827373   -0.000844   -1.791748
 ---------------------------------------------------------------------
 Rotational constants (GHZ):           0.0874094           0.0790807           0.0506081
 Leave Link  202 at Mon Feb 26 09:40:52 2024, MaxMem=  1342177280 cpu:               1.3 elap:               0.1
 (Enter /packages/apps/gaussian/g16/g16/l301.exe)
 Standard basis: 6-311+G(2d,2p) (5D, 7F)
 Ernie: Thresh=  0.10000D-02 Tol=  0.10000D-05 Strict=F.
 There are  1682 symmetry adapted cartesian basis functions of A   symmetry.
 There are  1602 symmetry adapted basis functions of A   symmetry.
  1602 basis functions,  2318 primitive gaussians,  1682 cartesian basis functions
   160 alpha electrons      160 beta electrons
       nuclear repulsion energy      5678.4620856957 Hartrees.
 IExCor= 4639 DFT=T Ex+Corr=wB97XD ExCW=0 ScaHFX=  1.000000
 ScaDFX=  1.000000  1.000000  1.000000  1.000000 ScalE2=  1.000000  1.000000
 IRadAn=      5 IRanWt=     -1 IRanGd=            0 ICorTp=0 IEmpDi=121
 HFx  wShort=  0.000000 wLong=  0.200000 cFull=  0.222036 cShort=  0.000000 cLong=  0.777964
 DFx  wShort=  0.000000 wLong=  0.200000 cFull=  0.000000 cShort=  0.000000 cLong=  1.000000
[...]
 Alpha virt. eigenvalues --    2.30492   2.31137   2.32618   2.33718   2.37217
 Alpha virt. eigenvalues --    2.38326   2.39407   2.40319   2.41054   2.44059
 Alpha virt. eigenvalues --    2.45239   2.47016   2.48548   2.49202   2.50363
 Alpha virt. eigenvalues --    2.51279   2.52942   2.53426   2.54759   2.56003
 Alpha virt. eigenvalues --    2.56744   2.57280   2.61736   2.62053   2.63764
 Alpha virt. eigenvalues --    2.66120   2.67030   2.67857   2.69380   2.71953
 Alpha virt. eigenvalues --    2.73288   2.79077   2.79985   2.81605   2.84011
 Alpha virt. eigenvalues --    2.84915   2.86410   2.86631   2.88173   2.88938
 Alpha virt. eigenvalues --    2.89794   2.91053   2.91234   2.92063   2.92364
 Alpha virt. eigenvalues --    2.93441   2.95213   2.95338   2.96456   2.97376
 Alpha virt. eigenvalues --    2.97522   2.97850   2.98629   2.99408   2.99809
 Alpha virt. eigenvalues --    3.00596   3.01105   3.02055   3.02284   3.02678
 Alpha virt. eigenvalues --    3.02924   3.03327   3.03819   3.03998   3.04811
 Alpha virt. eigenvalues --    3.05081   3.06310   3.06589   3.07458   3.08162
 Alpha virt. eigenvalues --    3.09237   3.09627   3.10217   3.10793   3.11176
 Alpha virt. eigenvalues --    3.12433   3.13216   3.13925   3.14712   3.14993
 Alpha virt. eigenvalues --    3.16491   3.17041   3.17559   3.18221   3.18838
 Alpha virt. eigenvalues --    3.19906   3.20056   3.20163   3.20770   3.21318
 Alpha virt. eigenvalues --    3.21685   3.22075   3.22785   3.23691   3.24057
 Alpha virt. eigenvalues --    3.24286   3.25636   3.26135   3.26631   3.26873
 Alpha virt. eigenvalues --    3.27317   3.27727   3.28568   3.29322   3.29834
 Alpha virt. eigenvalues --    3.29965   3.30362   3.30978   3.31162   3.32544
 Alpha virt. eigenvalues --    3.32645   3.33424   3.33532   3.34012   3.34783
 Alpha virt. eigenvalues --    3.35001   3.35256   3.36208   3.36412   3.36426
 Alpha virt. eigenvalues --    3.36671   3.37643   3.37918   3.38237   3.38682
 Alpha virt. eigenvalues --    3.39044   3.39352   3.39820   3.40202   3.41189
 Alpha virt. eigenvalues --    3.41628   3.42176   3.42981   3.43115   3.43713
 Alpha virt. eigenvalues --    3.44100   3.44963   3.45147   3.45810   3.45994
 Alpha virt. eigenvalues --    3.46483   3.47193   3.47389   3.47741   3.48263
 Alpha virt. eigenvalues --    3.48626   3.49084   3.49476   3.49685   3.49840
 Alpha virt. eigenvalues --    3.50276   3.50859   3.51166   3.51325   3.52260
 Alpha virt. eigenvalues --    3.52399   3.52899   3.53042   3.53380   3.53756
 Alpha virt. eigenvalues --    3.54028   3.54623   3.55389   3.55684   3.55837
 Alpha virt. eigenvalues --    3.56181   3.57337   3.57748   3.58069   3.58562
 Alpha virt. eigenvalues --    3.58774   3.59332   3.59416   3.59915   3.60994
 Alpha virt. eigenvalues --    3.61534   3.61573   3.62256   3.62319   3.62635
 Alpha virt. eigenvalues --    3.62780   3.63083   3.63638   3.63893   3.64179
 Alpha virt. eigenvalues --    3.64294   3.65006   3.65242   3.65616   3.66047
 Alpha virt. eigenvalues --    3.66940   3.67413   3.67904   3.68215   3.68749
 Alpha virt. eigenvalues --    3.68943   3.69303   3.69574   3.69688   3.70413
 Alpha virt. eigenvalues --    3.70550   3.70815   3.70986   3.71530   3.71785
 Alpha virt. eigenvalues --    3.71989   3.72629   3.72947   3.73057   3.73371
 Alpha virt. eigenvalues --    3.74208   3.74421   3.74568   3.74885   3.75263
 Alpha virt. eigenvalues --    3.75818   3.76085   3.76779   3.77152   3.77727
 Alpha virt. eigenvalues --    3.78173   3.78390   3.78698   3.78794   3.79004
 Alpha virt. eigenvalues --    3.79447   3.80016   3.80448   3.80801   3.81145
 Alpha virt. eigenvalues --    3.81799   3.82286   3.82590   3.82887   3.83592
 Alpha virt. eigenvalues --    3.84185   3.84223   3.85030   3.85522   3.85698
 Alpha virt. eigenvalues --    3.85778   3.86403   3.86705   3.87091   3.87480
 Alpha virt. eigenvalues --    3.87857   3.88302   3.88857   3.89080   3.89540
 Alpha virt. eigenvalues --    3.90061   3.90335   3.91324   3.91501   3.92743
 Alpha virt. eigenvalues --    3.93305   3.93554   3.93947   3.94088   3.94803
 Alpha virt. eigenvalues --    3.95234   3.95549   3.95818   3.96136   3.96798
 Alpha virt. eigenvalues --    3.97019   3.97741   3.98429   3.98769   3.99058
 Alpha virt. eigenvalues --    3.99176   4.00063   4.00189   4.00417   4.00944
 Alpha virt. eigenvalues --    4.01341   4.01661   4.02016   4.02593   4.03358
 Alpha virt. eigenvalues --    4.03487   4.03735   4.04147   4.04409   4.04596
 Alpha virt. eigenvalues --    4.05166   4.05647   4.05755   4.06613   4.06790
 Alpha virt. eigenvalues --    4.07003   4.07320   4.07539   4.08036   4.08217
 Alpha virt. eigenvalues --    4.08539   4.09020   4.09389   4.09634   4.10080
 Alpha virt. eigenvalues --    4.10188   4.10731   4.11415   4.11631   4.12259
 Alpha virt. eigenvalues --    4.12440   4.12539   4.13104   4.13396   4.13488
 Alpha virt. eigenvalues --    4.13964   4.14290   4.14590   4.14744   4.14957
 Alpha virt. eigenvalues --    4.15218   4.15858   4.16086   4.16515   4.16747
 Alpha virt. eigenvalues --    4.17194   4.17423   4.17789   4.17990   4.18257
 Alpha virt. eigenvalues --    4.18820   4.18917   4.19239   4.19409   4.20116
 Alpha virt. eigenvalues --    4.20253   4.20623   4.20796   4.20854   4.21094
 Alpha virt. eigenvalues --    4.21412   4.22022   4.22239   4.22486   4.22845
 Alpha virt. eigenvalues --    4.23673   4.23775   4.24054   4.24526   4.25183
 Alpha virt. eigenvalues --    4.26115   4.26155   4.26311   4.26772   4.27199
 Alpha virt. eigenvalues --    4.27422   4.27856   4.28074   4.28289   4.28595
 Alpha virt. eigenvalues --    4.28945   4.29227   4.29483   4.29997   4.30132
 Alpha virt. eigenvalues --    4.30754   4.31041   4.31253   4.31354   4.32131
 Alpha virt. eigenvalues --    4.32390   4.32771   4.33148   4.33527   4.34137
 Alpha virt. eigenvalues --    4.34335   4.34412   4.34900   4.35419   4.36010
 Alpha virt. eigenvalues --    4.36153   4.36523   4.36971   4.37158   4.37460
 Alpha virt. eigenvalues --    4.37790   4.38106   4.38487   4.38922   4.39624
 Alpha virt. eigenvalues --    4.40122   4.40286   4.40517   4.40797   4.40854
 Alpha virt. eigenvalues --    4.41283   4.41705   4.41990   4.42478   4.43159
 Alpha virt. eigenvalues --    4.43314   4.43851   4.44549   4.44662   4.44918
 Alpha virt. eigenvalues --    4.45017   4.45374   4.45891   4.46351   4.47111
 Alpha virt. eigenvalues --    4.47704   4.47869   4.48231   4.49218   4.49490
 Alpha virt. eigenvalues --    4.50277   4.50592   4.51599   4.52479   4.53297
 Alpha virt. eigenvalues --    4.53530   4.54498   4.54932   4.55516   4.55746
 Alpha virt. eigenvalues --    4.56225   4.56555   4.58431   4.58777   4.59561
 Alpha virt. eigenvalues --    4.60289   4.61280   4.61915   4.62284   4.62979
 Alpha virt. eigenvalues --    4.63770   4.64662   4.65275   4.66044   4.66980
 Alpha virt. eigenvalues --    4.67897   4.68394   4.69685   4.70274   4.70666
 Alpha virt. eigenvalues --    4.72318   4.73822   4.74833   4.75180   4.76044
 Alpha virt. eigenvalues --    4.77924   4.79748   4.80226   4.82509   4.83791
 Alpha virt. eigenvalues --    4.84247   4.86390   4.86852   4.97705   5.01501
 Alpha virt. eigenvalues --    5.03093   5.03812   5.04109   5.04571   5.04605
 Alpha virt. eigenvalues --    5.05621   5.05981   5.06426   5.07912   5.12300
 Alpha virt. eigenvalues --    5.12619   5.12894   5.13664   5.13846   5.14173
 Alpha virt. eigenvalues --    5.14929   5.15184   5.16216   5.16695   5.17259
 Alpha virt. eigenvalues --    5.17303   5.17370   5.17626   5.17784   5.18684
 Alpha virt. eigenvalues --    5.19077   5.19686   5.21814   5.22328   5.23347
 Alpha virt. eigenvalues --    5.23724   5.26131   5.26548   5.30296   5.30996
 Alpha virt. eigenvalues --    5.32472   5.33208   5.33563   5.34642   5.35639
 Alpha virt. eigenvalues --    5.36520   5.37128   5.40749   5.41602   5.41638
 Alpha virt. eigenvalues --    5.42509   5.45916   5.46398   5.46896   5.47394
 Alpha virt. eigenvalues --    5.47902   5.48724   5.51172   5.57449   5.59910
 Alpha virt. eigenvalues --    5.69138   5.75294   5.77327   5.78717   5.79181
 Alpha virt. eigenvalues --    5.80189   5.80531   5.81999   5.83063   5.83490
 Alpha virt. eigenvalues --    5.85761   5.86440   5.90354   5.90903   5.91982
 Alpha virt. eigenvalues --    5.92425   5.93805   5.95141   6.21302   6.28203
 Alpha virt. eigenvalues --    6.29669   6.31679   6.33667   6.34721   6.35069
 Alpha virt. eigenvalues --    6.36389   6.38981   6.99985   7.01283   7.03096
 Alpha virt. eigenvalues --    7.04053   7.04419   7.05684   7.06173   7.07241
 Alpha virt. eigenvalues --    7.07977   7.08962   7.09676   7.09920   7.12671
 Alpha virt. eigenvalues --    7.12955   7.13958   7.15116   7.17072   7.19974
 Alpha virt. eigenvalues --    7.22209   7.23542   7.24315   7.25805   7.26983
 Alpha virt. eigenvalues --    7.28769   7.30188   7.30597   7.33954   7.36186
 Alpha virt. eigenvalues --    7.40444   7.41158   7.44593   7.46134   7.48242
 Alpha virt. eigenvalues --    7.49311   7.52815   7.55256   7.55431   7.59388
 Alpha virt. eigenvalues --    7.61253   7.61513   7.66659   7.66809   7.70507
 Alpha virt. eigenvalues --    7.72413   7.72994   7.75810   7.77017   7.80327
 Alpha virt. eigenvalues --    7.80995   7.84127  23.90108  23.91246  24.05687
 Alpha virt. eigenvalues --   24.05879  24.10809  24.10989  24.12363  24.14220
 Alpha virt. eigenvalues --   24.17121  24.17914  24.18241  24.18809  24.19655
 Alpha virt. eigenvalues --   24.20018  24.20423  24.21619  24.22187  24.23131
 Alpha virt. eigenvalues --   24.23934  24.32521  24.33530  24.34931  24.35511
 Alpha virt. eigenvalues --   24.37333  24.37651  24.45252  24.47623  24.47999
 Alpha virt. eigenvalues --   35.62635  35.63861  50.15651  50.16434  50.19463
 Alpha virt. eigenvalues --   50.19914  50.20582  50.20993  50.22180  50.33314
 Alpha virt. eigenvalues --   50.35275  50.40949
          Condensed to atoms (all electrons):
 Mulliken charges:
               1
     1  C   -0.497777
     2  C    0.127274
     3  H    0.125675
     4  H    0.124039
     5  H    0.126288
     6  C   -0.668339
     7  H    0.109651
     8  C    0.329796
     9  H    0.119703
    10  H    0.164073
    11  C   -0.706829
    12  C    0.082918
    13  H    0.114756
    14  C   -0.516331
    15  H    0.124825
    16  H    0.129812
    17  H    0.124088
    18  C    0.512092
    19  C   -0.369966
    20  C   -0.244406
    21  C   -0.276486
    22  H    0.125750
    23  C   -0.262809
    24  H    0.121130
    25  C    0.174368
    26  H    0.155429
    27  H    0.155934
    28  C    0.456756
    29  C   -0.401451
    30  C   -0.335040
    31  C   -0.306252
    32  H    0.131739
    33  C   -0.310095
    34  H    0.119388
    35  C    0.344450
    36  H    0.179492
    37  H    0.155372
    38  C   -0.534042
    39  H    0.203338
    40  H    0.174074
    41  C   -0.750421
    42  H    0.167279
    43  H    0.166380
    44  C   -0.169765
    45  H    0.156136
    46  H    0.176586
    47  H    0.198191
    48  C   -0.180089
    49  H    0.182332
    50  H    0.180510
    51  H    0.157695
    52  C   -0.232759
    53  H    0.226612
    54  H    0.171901
    55  H    0.150005
    56  C   -0.208347
    57  H    0.157257
    58  H    0.228570
    59  H    0.210686
    60  C   -0.214913
    61  H    0.152549
    62  H    0.171894
    63  H    0.203115
    64  C   -0.215954
    65  H    0.168808
    66  H    0.214825
    67  H    0.154159
    68  N    0.126506
    69  N    0.178112
    70  C   -0.222318
    71  O   -0.654317
    72  O   -0.684353
    73  O   -0.763673
    74  H    0.150795
    75  H    0.119208
    76  H    0.123725
    77  H    0.139413
    78  O   -0.686381
    79  H    0.267127
    80  H    0.466595
    81  O   -0.592540
    82  H    0.251024
    83  H    0.424428
    84  O   -0.486688
    85  H    0.285475
    86  H    0.273582
    87  O   -0.551244
    88  H    0.308548
    89  H    0.361774
    90  O   -0.629158
    91  H    0.430190
    92  H    0.256480
    93  O   -0.530149
    94  H    0.275817
    95  H    0.290970
    96  O   -0.580586
    97  H    0.275309
    98  H    0.370701
 Sum of Mulliken charges =  -0.00000
 Mulliken charges with hydrogens summed into heavy atoms:
               1
     1  C   -0.121775
     2  C    0.236925
     6  C   -0.405201
     8  C    0.613572
    11  C   -0.436825
    12  C    0.197675
    14  C   -0.137606
    18  C    0.512092
    19  C   -0.244216
    20  C   -0.123275
    21  C   -0.121058
    23  C   -0.106875
    25  C    0.174368
    28  C    0.456756
    29  C   -0.269712
    30  C   -0.215652
    31  C   -0.126760
    33  C   -0.154723
    35  C    0.344450
    38  C   -0.156630
    41  C   -0.416762
    44  C    0.361148
    48  C    0.340447
    52  C    0.315759
    56  C    0.388166
    60  C    0.312646
    64  C    0.321838
    68  N    0.126506
    69  N    0.178112
    70  C   -0.222318
    71  O   -0.654317
    72  O   -0.684353
    73  O   -0.763673
    78  O    0.047341
    81  O    0.082913
    84  O    0.072368
    87  O    0.119078
    90  O    0.057512
    93  O    0.036638
    96  O    0.065424
 Electronic spatial extent (au):  <R**2>=          22891.7321
 Charge=              0.0000 electrons
 Dipole moment (field-independent basis, Debye):
    X=             -1.9106    Y=             -1.0699    Z=             -7.0278  Tot=              7.3611
 Quadrupole moment (field-independent basis, Debye-Ang):
   XX=           -246.4587   YY=           -177.0780   ZZ=           -267.9182
   XY=            -19.3894   XZ=            -19.2691   YZ=              1.3691
 Traceless Quadrupole moment (field-independent basis, Debye-Ang):
   XX=            -15.9737   YY=             53.4070   ZZ=            -37.4332
   XY=            -19.3894   XZ=            -19.2691   YZ=              1.3691
 Octapole moment (field-independent basis, Debye-Ang**2):
  XXX=             26.4334  YYY=            123.8237  ZZZ=            -42.5724  XYY=            158.0339
  XXY=            -89.8154  XXZ=            -74.0317  XZZ=             32.0180  YZZ=             -9.2421
  YYZ=            -89.1146  XYZ=             16.1302
 Hexadecapole moment (field-independent basis, Debye-Ang**3):
 XXXX=         -14358.2919 YYYY=         -10997.8094 ZZZZ=          -3249.4258 XXXY=           -168.8095
 XXXZ=           -203.5344 YYYX=           -334.9150 YYYZ=             19.4435 ZZZX=            -83.6068
 ZZZY=            -17.2172 XXYY=          -4290.1843 XXZZ=          -2826.3971 YYZZ=          -2626.6609
 XXYZ=            123.3540 YYXZ=           -270.1933 ZZXY=              5.6083
 N-N= 5.679778834883D+03 E-N=-1.595211688369D+04  KE= 1.956163396955D+03
 No NMR shielding tensors so no spin-rotation constants.
 Leave Link  601 at Tue Feb 27 02:09:36 2024, MaxMem=  1342177280 cpu:              16.9 elap:               1.1
 (Enter /packages/apps/gaussian/g16/g16/l9999.exe)
 1\1\GINC-C012\FOpt\RwB97XD\6-311+G(2d,2p)\C28H58N2O10\MDTURNE9\27-Feb-
 2024\0\\#p opt=readfc wb97xd/6-311+g(2d,2p) guess=read geom=connectivi
 ty\\Required\\0,1\C,-6.1668964279,-2.3306838404,0.2551357165\C,-5.1206
 285544,-1.274256861,0.6172632077\H,-6.0717987071,-3.2122836969,0.88943
 33789\H,-7.1740518259,-1.9292186498,0.3754978729\H,-6.0606620502,-2.65
 15792353,-0.7825515523\C,-5.2615691869,-0.0292401644,-0.2731443283\H,-
 5.301806765,-0.9631118966,1.6501571929\C,-4.3621160243,1.1314661546,0.
 1377464381\H,-4.6295887404,1.4492976545,1.1515328266\H,-3.324089315,0.
 79657168,0.1887994613\C,-4.4651203712,2.3204016024,-0.8114397325\C,-3.
 7396616259,3.5814528933,-0.3174907251\H,-4.1734121566,3.8435180139,0.6
 521576354\C,-3.981470657,4.7570190575,-1.2665279664\H,-3.4755563971,5.
 6568284191,-0.9157097821\H,-3.6168674006,4.5375296491,-2.271100116\H,-
 5.0482725628,4.9718729306,-1.3431004575\C,-3.7116103741,-1.825026807,0
 .5537889178\C,-3.2020287446,-2.3382056372,-0.6376672116\C,-2.863343737
 9,-1.7575832232,1.6529416458\C,-1.8842311489,-2.7460164728,-0.73079185
 17\H,-3.8269907696,-2.3787216773,-1.5205109674\C,-1.541211222,-2.16763
 21471,1.565536974\H,-3.226376648,-1.3334862956,2.5807139372\C,-1.03621
 90795,-2.6683850651,0.3721018256\H,-1.4941035829,-3.0740605919,-1.6848
 557426\H,-0.8790921226,-2.0239831193,2.4103700472\C,-2.2643049791,3.32
 66880217,-0.0858755983\C,-1.3827579284,3.1406221106,-1.148971178\C,-1.
 7634243183,3.2140425225,1.207204892\C,-0.0421435306,2.8789038832,-0.92
 53624822\H,-1.7462936143,3.1669433346,-2.1676698749\C,-0.4254961561,2.
 9363358041,1.4358499613\H,-2.4377735233,3.3135468326,2.0487632453\C,0.
 455645889,2.792459754,0.3707551255\H,0.6146680247,2.6877632905,-1.7642
 733363\H,-0.0740039421,2.7759109523,2.4471659577\C,1.8890364371,2.4363
 786496,0.612481946\H,1.9875216471,1.8270254641,1.5089950547\H,2.308326
 6954,1.903959097,-0.2330001826\C,0.4283774797,-2.9466954347,0.23267881
 \H,0.7763883747,-2.621155339,-0.7409010024\H,0.9872734645,-2.437732700
 9,1.0073122481\C,4.1754910413,3.0699429224,1.1174746396\H,4.8754386,3.
 8938109208,1.2368794867\H,4.1060807278,2.4971352271,2.0382121377\H,4.4
 91521845,2.4188567652,0.3084687712\C,2.3801401303,4.4935259469,1.91783
 67912\H,1.4140682748,4.9220884908,1.670601684\H,2.2921661347,3.8884496
 124,2.816824636\H,3.1159110705,5.2806458939,2.0653480869\C,2.911097786
 ,4.4157516334,-0.4612127011\H,3.2526989167,3.7461026735,-1.2513302262\
 H,1.9238223337,4.8073706072,-0.6887712556\H,3.6134600879,5.232947933,-
 0.3110208617\C,2.3376321639,-4.4313092169,0.1430287915\H,2.673698178,-
 5.4641650717,0.2049027048\H,2.5921154998,-4.0063600975,-0.8251058988\H
 ,2.7850677265,-3.8300518169,0.9307620857\C,0.5085085345,-4.9541917214,
 1.65677686\H,0.8469337933,-5.986400582,1.7119380761\H,-0.5682585046,-4
 .902072327,1.7921847516\H,1.0099995585,-4.3508090747,2.4101298998\C,0.
 2219754413,-5.2071643376,-0.7583058481\H,-0.85175403,-5.2345461468,-0.
 5986083826\H,0.450935085,-4.7286481616,-1.7093139955\H,0.630358857,-6.
 214646915,-0.7252347746\N,2.8285134151,3.6267289733,0.8011644849\N,0.8
 534159263,-4.4053349385,0.3224215669\C,1.9980167564,-0.4287359225,-0.4
 995216067\O,0.9019475415,-0.1939634051,0.078535211\O,2.1375764929,-0.2
 809435405,-1.7707215351\O,3.0328773056,-0.8431414725,0.1893634329\H,-4
 .0677570112,2.0371360524,-1.7911622316\H,-5.5184348068,2.5742284491,-0
 .9666244709\H,-6.3060311501,0.2961116016,-0.252687724\H,-5.0481575879,
 -0.3065584246,-1.3102697962\O,2.8094482796,-2.0706361583,2.4858903576\
 H,3.6654831426,-2.026159449,2.9097161193\H,2.9034986292,-1.54965627,1.
 6356585813\O,4.3638584257,-2.5010906557,-1.5424212047\H,4.1946383634,-
 2.1006329194,-2.3957079832\H,3.8787086503,-1.9150743422,-0.9244910447\
 O,0.9515723176,-2.6425062652,-2.9509873267\H,1.6676542573,-2.046927083
 2,-2.6848868212\H,0.2168912547,-2.011890937,-3.0071161551\O,-0.5004768
 295,-0.1923659062,-2.5316491799\H,-0.8230112579,-0.20229523,-1.6262198
 581\H,0.4564337601,-0.0497908065,-2.3688222612\O,5.414270991,0.3382920
 031,-0.2603566903\H,4.5378055194,-0.072967799,-0.0734370853\H,5.902198
 8757,-0.3668399142,-0.6889958475\O,3.8522832569,1.8416147684,-2.132522
 1271\H,4.6011115356,1.4210241823,-1.6882669507\H,3.20662804,1.10790268
 ,-2.1718798681\O,0.8905697644,0.1344361047,2.7738723154\H,1.528341184,
 -0.5416291602,3.0268839071\H,0.8257808845,0.005550711,1.8007571026\\Ve
 rsion=ES64L-G16RevA.03\State=1-A\HF=-1963.8327112\RMSD=2.547e-09\RMSF=
 1.049e-05\Dipole=-0.7607351,0.4104834,2.7640581\Quadrupole=-12.329173,
 40.1319189,-27.8027459,13.6324579,14.3199856,1.2247072\PG=C01 [X(C28H5
 8N2O10)]\\@


 THERE ARE TWO THINGS THAT EVERYBODY THINKS THEY CAN DO BETTER THAN
 ANYONE ELSE - PUNCH THE FIRE, AND EDIT A DAILY PAPER.
 -- UNCLE ESEK, "CENTURY MAGAZINE", 1885
 Job cpu time:      13 days 10 hours 51 minutes 40.3 seconds.
 Elapsed time:       0 days 16 hours 28 minutes 25.3 seconds.
 File lengths (MBytes):  RWF=   1667 Int=      0 D2E=      0 Chk=    205 Scr=      1
 Normal termination of Gaussian 16 at Tue Feb 27 02:09:36 2024.
