 Entering Gaussian System, Link 0=g16
 Input=1water-ofreq.gjf
 Output=1water-ofreq.log
 Initial command:
 /packages/apps/gaussian/g16/g16/l1.exe "/scratch/mdturne9/2-5-methyl/ofreq/Gau-17493.inp" -scrdir="/scratch/mdturne9/2-5-methyl/ofreq/"
 Entering Link 1 = /packages/apps/gaussian/g16/g16/l1.exe PID=     17494.
  
 Copyright (c) 1988,1990,1992,1993,1995,1998,2003,2009,2016,
            Gaussian, Inc.  All Rights Reserved.
  
 This is part of the Gaussian(R) 16 program.  It is based on
 the Gaussian(R) 09 system (copyright 2009, Gaussian, Inc.),
 the Gaussian(R) 03 system (copyright 2003, Gaussian, Inc.),
 the Gaussian(R) 98 system (copyright 1998, Gaussian, Inc.),
 the Gaussian(R) 94 system (copyright 1995, Gaussian, Inc.),
 the Gaussian 92(TM) system (copyright 1992, Gaussian, Inc.),
 the Gaussian 90(TM) system (copyright 1990, Gaussian, Inc.),
 the Gaussian 88(TM) system (copyright 1988, Gaussian, Inc.),
 the Gaussian 86(TM) system (copyright 1986, Carnegie Mellon
 University), and the Gaussian 82(TM) system (copyright 1983,
 Carnegie Mellon University). Gaussian is a federally registered
 trademark of Gaussian, Inc.
  
 This software contains proprietary and confidential information,
 including trade secrets, belonging to Gaussian, Inc.
  
 This software is provided under written license and may be
 used, copied, transmitted, or stored only in accord with that
 written license.
  
 The following legend is applicable only to US Government
 contracts under FAR:
  
                    RESTRICTED RIGHTS LEGEND
  
 Use, reproduction and disclosure by the US Government is
 subject to restrictions as set forth in subparagraphs (a)
 and (c) of the Commercial Computer Software - Restricted
 Rights clause in FAR 52.227-19.
  
 Gaussian, Inc.
 340 Quinnipiac St., Bldg. 40, Wallingford CT 06492
  
  
 ---------------------------------------------------------------
 Warning -- This program may not be used in any manner that
 competes with the business of Gaussian, Inc. or will provide
 assistance to any competitor of Gaussian, Inc.  The licensee
 of this program is prohibited from giving any competitor of
 Gaussian, Inc. access to this program.  By using this program,
 the user acknowledges that Gaussian, Inc. is engaged in the
 business of creating and licensing software in the field of
 computational chemistry and represents and warrants to the
 licensee that it is not a competitor of Gaussian, Inc. and that
 it will not use this program in any manner prohibited above.
 ---------------------------------------------------------------
  

 Cite this work as:
 Gaussian 16, Revision A.03,
 M. J. Frisch, G. W. Trucks, H. B. Schlegel, G. E. Scuseria, 
 M. A. Robb, J. R. Cheeseman, G. Scalmani, V. Barone, 
 G. A. Petersson, H. Nakatsuji, X. Li, M. Caricato, A. V. Marenich, 
 J. Bloino, B. G. Janesko, R. Gomperts, B. Mennucci, H. P. Hratchian, 
 J. V. Ortiz, A. F. Izmaylov, J. L. Sonnenberg, D. Williams-Young, 
 F. Ding, F. Lipparini, F. Egidi, J. Goings, B. Peng, A. Petrone, 
 T. Henderson, D. Ranasinghe, V. G. Zakrzewski, J. Gao, N. Rega, 
 G. Zheng, W. Liang, M. Hada, M. Ehara, K. Toyota, R. Fukuda, 
 J. Hasegawa, M. Ishida, T. Nakajima, Y. Honda, O. Kitao, H. Nakai, 
 T. Vreven, K. Throssell, J. A. Montgomery, Jr., J. E. Peralta, 
 F. Ogliaro, M. J. Bearpark, J. J. Heyd, E. N. Brothers, K. N. Kudin, 
 V. N. Staroverov, T. A. Keith, R. Kobayashi, J. Normand, 
 K. Raghavachari, A. P. Rendell, J. C. Burant, S. S. Iyengar, 
 J. Tomasi, M. Cossi, J. M. Millam, M. Klene, C. Adamo, R. Cammi, 
 J. W. Ochterski, R. L. Martin, K. Morokuma, O. Farkas, 
 J. B. Foresman, and D. J. Fox, Gaussian, Inc., Wallingford CT, 2016.
 
 ******************************************
 Gaussian 16:  ES64L-G16RevA.03 25-Dec-2016
                28-Mar-2024 
 ******************************************
 %nprocshared=40
 Will use up to   40 processors via shared memory.
 %mem=10GB
 %chk=1water-ofreq.chk
 ---------------------------------------------------
 #p opt freq wb97xd/6-311+g(2d,2p) geom=connectivity
 ---------------------------------------------------
 1/18=20,19=15,26=3,38=1,57=2/1,3;
 2/9=110,12=2,17=6,18=5,40=1/2;
 3/5=4,6=6,7=212,11=2,25=1,30=1,71=1,74=-58/1,2,3;
 4//1;
 5/5=2,38=5/2;
 6/7=2,8=2,9=2,10=2,28=1/1;
 7//1,2,3,16;
 1/18=20,19=15,26=3/3(2);
 2/9=110/2;
 99//99;
 2/9=110/2;
 3/5=4,6=6,7=212,11=2,25=1,30=1,71=1,74=-58/1,2,3;
 4/5=5,16=3,69=1/1;
 5/5=2,38=5/2;
 7//1,2,3,16;
 1/18=20,19=15,26=3/3(-5);
 2/9=110/2;
 6/7=2,8=2,9=2,10=2,19=2,28=1/1;
 99/9=1/99;
 Leave Link    1 at Thu Mar 28 10:27:48 2024, MaxMem=  1342177280 cpu:               7.8 elap:               0.3
 (Enter /packages/apps/gaussian/g16/g16/l101.exe)
 --------
 Required
 --------
 Symbolic Z-matrix:
 Charge =  0 Multiplicity = 1
 C                    0     2.85033   3.76222  -2.45842  H 
 C                    0     2.9184    3.21475  -1.02954  H 
 H                    0     2.21292   4.64502  -2.51141  H 
 H                    0     3.84433   4.0342   -2.81693  H 
 H                    0     2.44008   3.0128   -3.13804  H 
 C                    0     3.83302   1.98533  -0.96097  H 
 H                    0     3.34886   3.99178  -0.39073  H 
 C                    0     4.09015   1.47497   0.45877  H 
 H                    0     4.92412   2.02615   0.90052  H 
 H                    0     3.22051   1.67941   1.08819  H 
 C                    0     4.38883  -0.0325    0.52254  H 
 C                    0     4.92763  -0.43488   1.90095  H 
 C                    0     5.29297  -1.9107    2.0064   H 
 H                    0     5.71078  -2.14298   2.98598  H 
 H                    0     4.4185   -2.54444   1.85515  H 
 H                    0     6.03474  -2.18334   1.25277  H 
 C                    0     1.52608   2.91834  -0.50417  H 
 C                    0     0.78558   1.83993  -0.98503  H 
 C                    0     0.95109   3.71702   0.4794   H 
 C                    0    -0.48288   1.5671   -0.50414  H 
 H                    0     1.2145    1.17287  -1.72231  H 
 C                    0    -0.32403   3.4538    0.95992  H 
 H                    0     1.5143    4.5479    0.88679  H 
 C                    0    -1.06136   2.38268   0.46671  H 
 H                    0    -1.03367   0.69097  -0.82827  H 
 H                    0    -0.73646   4.07754   1.74458  H 
 C                    0     3.1528   -0.81754   0.13037  H 
 C                    0     3.09366  -1.52496  -1.06534  H 
 C                    0     2.01032  -0.78767   0.92626  H 
 C                    0     1.92456  -2.15967  -1.46133  H 
 H                    0     3.96582  -1.56117  -1.70677  H 
 C                    0     0.84024  -1.41346   0.53576  H 
 H                    0     2.01029  -0.23081   1.85445  H 
 C                    0     0.78089  -2.1106   -0.67     H 
 H                    0     1.89805  -2.68001  -2.41198  H 
 H                    0    -0.04126  -1.32415   1.15517  H 
 C                    0    -0.51244  -2.70531  -1.14764  H 
 H                    0    -1.35251  -2.05815  -0.85206  H 
 H                    0    -0.48866  -2.83794  -2.22849  H 
 C                    0    -2.42019   2.0349    1.00034  H 
 H                    0    -2.5829    0.95477   0.89876  H 
 H                    0    -2.53064   2.3495    2.03696  H 
 C                    0    -2.01353  -4.60725  -1.34928  H 
 H                    0    -2.27325  -5.58286  -0.94359  H 
 H                    0    -2.83648  -3.89708  -1.1997   H 
 H                    0    -1.7287   -4.70338  -2.3949   H 
 C                    0    -1.24458  -3.97104   0.85243  H 
 H                    0    -0.43383  -3.52507   1.4188   H 
 H                    0    -2.14607  -3.35109   0.87501  H 
 H                    0    -1.4501   -4.97587   1.21692  H 
 C                    0     0.30954  -5.00534  -0.72253  H 
 H                    0     0.60659  -5.05039  -1.76815  H 
 H                    0     1.13813  -4.64031  -0.123    H 
 H                    0     0.00638  -5.99218  -0.38167  H 
 C                    0    -4.8417    2.19377   0.89861  H 
 H                    0    -5.6821    2.69184   0.41927  H 
 H                    0    -4.89453   1.1104    0.72755  H 
 H                    0    -4.8082    2.45067   1.95506  H 
 C                    0    -3.50784   4.15494   0.32404  H 
 H                    0    -3.50538   4.46024   1.36824  H 
 H                    0    -2.59627   4.49224  -0.16091  H 
 H                    0    -4.37475   4.57422  -0.18062  H 
 C                    0    -3.59913   2.23285  -1.17537  H 
 H                    0    -2.67367   2.5455   -1.64922  H 
 H                    0    -3.73208   1.14393  -1.16871  H 
 H                    0    -4.44868   2.7115   -1.65872  H 
 N                    0    -0.83984  -4.08255  -0.58422  H 
 N                    0    -3.58198   2.67838   0.2528   H 
 H                    0     4.7853    2.2267   -1.44002  H 
 H                    0     3.3898    1.19065  -1.56485  H 
 H                    0     4.19017  -0.18118   2.66699  H 
 H                    0     5.80797   0.17653   2.11366  H 
 H                    0     5.16922  -0.25498  -0.21339  H 
 C                    0    -3.63354  -1.30107  -0.13836  H 
 O                    0    -3.76494  -2.56477  -0.14175  H 
 O                    0    -4.58347  -0.49149  -0.36282  H 
 O                    0    -2.42674  -0.80177   0.11489  H 
 O                    0    -1.75341  -1.10866   2.6237   L 
 H                    0    -2.47539  -1.55228   3.06628  L 
 H                    0    -2.05376  -1.02874   1.67283  L 
 
 Add virtual bond connecting atoms H80        and O77        Dist= 3.06D+00.
 Add virtual bond connecting atoms O75        and H45        Dist= 3.66D+00.
 Add virtual bond connecting atoms O75        and H49        Dist= 3.91D+00.
 Add virtual bond connecting atoms O76        and H57        Dist= 3.71D+00.
 Add virtual bond connecting atoms O76        and H65        Dist= 3.80D+00.
 Add virtual bond connecting atoms O77        and H38        Dist= 3.62D+00.
 ITRead=  0  0  0  0  0  0  0  0  0  0  0  0  0  0  0  0  0  0  0  0
 ITRead=  0  0  0  0  0  0  0  0  0  0  0  0  0  0  0  0  0  0  0  0
 ITRead=  0  0  0  0  0  0  0  0  0  0  0  0  0  0  0  0  0  0  0  0
 ITRead=  0  0  0  0  0  0  0  0  0  0  0  0  0  0  0  0  0  0  0  0
 MicOpt= -1 -1 -1 -1 -1 -1 -1 -1 -1 -1 -1 -1 -1 -1 -1 -1 -1 -1 -1 -1
 MicOpt= -1 -1 -1 -1 -1 -1 -1 -1 -1 -1 -1 -1 -1 -1 -1 -1 -1 -1 -1 -1
 MicOpt= -1 -1 -1 -1 -1 -1 -1 -1 -1 -1 -1 -1 -1 -1 -1 -1 -1 -1 -1 -1
 MicOpt= -1 -1 -1 -1 -1 -1 -1 -1 -1 -1 -1 -1 -1 -1 -1 -1 -1 -1 -1 -1
 NAtoms=     80 NQM=       80 NQMF=       0 NMMI=      0 NMMIF=      0
                NMic=       0 NMicF=      0.
                    Isotopes and Nuclear Properties:
 (Nuclear quadrupole moments (NQMom) in fm**2, nuclear magnetic moments (NMagM)
  in nuclear magnetons)

  Atom         1           2           3           4           5           6           7           8           9          10
 IAtWgt=          12          12           1           1           1          12           1          12           1           1
 AtmWgt=  12.0000000  12.0000000   1.0078250   1.0078250   1.0078250  12.0000000   1.0078250  12.0000000   1.0078250   1.0078250
 NucSpn=           0           0           1           1           1           0           1           0           1           1
 AtZEff=  -0.0000000  -0.0000000  -0.0000000  -0.0000000  -0.0000000  -0.0000000  -0.0000000  -0.0000000  -0.0000000  -0.0000000
 NQMom=    0.0000000   0.0000000   0.0000000   0.0000000   0.0000000   0.0000000   0.0000000   0.0000000   0.0000000   0.0000000
 NMagM=    0.0000000   0.0000000   2.7928460   2.7928460   2.7928460   0.0000000   2.7928460   0.0000000   2.7928460   2.7928460
 AtZNuc=   6.0000000   6.0000000   1.0000000   1.0000000   1.0000000   6.0000000   1.0000000   6.0000000   1.0000000   1.0000000

  Atom        11          12          13          14          15          16          17          18          19          20
 IAtWgt=          12          12          12           1           1           1          12          12          12          12
 AtmWgt=  12.0000000  12.0000000  12.0000000   1.0078250   1.0078250   1.0078250  12.0000000  12.0000000  12.0000000  12.0000000
 NucSpn=           0           0           0           1           1           1           0           0           0           0
 AtZEff=  -0.0000000  -0.0000000  -0.0000000  -0.0000000  -0.0000000  -0.0000000  -0.0000000  -0.0000000  -0.0000000  -0.0000000
 NQMom=    0.0000000   0.0000000   0.0000000   0.0000000   0.0000000   0.0000000   0.0000000   0.0000000   0.0000000   0.0000000
 NMagM=    0.0000000   0.0000000   0.0000000   2.7928460   2.7928460   2.7928460   0.0000000   0.0000000   0.0000000   0.0000000
 AtZNuc=   6.0000000   6.0000000   6.0000000   1.0000000   1.0000000   1.0000000   6.0000000   6.0000000   6.0000000   6.0000000

  Atom        21          22          23          24          25          26          27          28          29          30
 IAtWgt=           1          12           1          12           1           1          12          12          12          12
 AtmWgt=   1.0078250  12.0000000   1.0078250  12.0000000   1.0078250   1.0078250  12.0000000  12.0000000  12.0000000  12.0000000
 NucSpn=           1           0           1           0           1           1           0           0           0           0
 AtZEff=  -0.0000000  -0.0000000  -0.0000000  -0.0000000  -0.0000000  -0.0000000  -0.0000000  -0.0000000  -0.0000000  -0.0000000
 NQMom=    0.0000000   0.0000000   0.0000000   0.0000000   0.0000000   0.0000000   0.0000000   0.0000000   0.0000000   0.0000000
 NMagM=    2.7928460   0.0000000   2.7928460   0.0000000   2.7928460   2.7928460   0.0000000   0.0000000   0.0000000   0.0000000
 AtZNuc=   1.0000000   6.0000000   1.0000000   6.0000000   1.0000000   1.0000000   6.0000000   6.0000000   6.0000000   6.0000000

  Atom        31          32          33          34          35          36          37          38          39          40
 IAtWgt=           1          12           1          12           1           1          12           1           1          12
 AtmWgt=   1.0078250  12.0000000   1.0078250  12.0000000   1.0078250   1.0078250  12.0000000   1.0078250   1.0078250  12.0000000
 NucSpn=           1           0           1           0           1           1           0           1           1           0
 AtZEff=  -0.0000000  -0.0000000  -0.0000000  -0.0000000  -0.0000000  -0.0000000  -0.0000000  -0.0000000  -0.0000000  -0.0000000
 NQMom=    0.0000000   0.0000000   0.0000000   0.0000000   0.0000000   0.0000000   0.0000000   0.0000000   0.0000000   0.0000000
 NMagM=    2.7928460   0.0000000   2.7928460   0.0000000   2.7928460   2.7928460   0.0000000   2.7928460   2.7928460   0.0000000
 AtZNuc=   1.0000000   6.0000000   1.0000000   6.0000000   1.0000000   1.0000000   6.0000000   1.0000000   1.0000000   6.0000000

  Atom        41          42          43          44          45          46          47          48          49          50
 IAtWgt=           1           1          12           1           1           1          12           1           1           1
 AtmWgt=   1.0078250   1.0078250  12.0000000   1.0078250   1.0078250   1.0078250  12.0000000   1.0078250   1.0078250   1.0078250
 NucSpn=           1           1           0           1           1           1           0           1           1           1
 AtZEff=  -0.0000000  -0.0000000  -0.0000000  -0.0000000  -0.0000000  -0.0000000  -0.0000000  -0.0000000  -0.0000000  -0.0000000
 NQMom=    0.0000000   0.0000000   0.0000000   0.0000000   0.0000000   0.0000000   0.0000000   0.0000000   0.0000000   0.0000000
 NMagM=    2.7928460   2.7928460   0.0000000   2.7928460   2.7928460   2.7928460   0.0000000   2.7928460   2.7928460   2.7928460
 AtZNuc=   1.0000000   1.0000000   6.0000000   1.0000000   1.0000000   1.0000000   6.0000000   1.0000000   1.0000000   1.0000000

  Atom        51          52          53          54          55          56          57          58          59          60
 IAtWgt=          12           1           1           1          12           1           1           1          12           1
 AtmWgt=  12.0000000   1.0078250   1.0078250   1.0078250  12.0000000   1.0078250   1.0078250   1.0078250  12.0000000   1.0078250
 NucSpn=           0           1           1           1           0           1           1           1           0           1
 AtZEff=  -0.0000000  -0.0000000  -0.0000000  -0.0000000  -0.0000000  -0.0000000  -0.0000000  -0.0000000  -0.0000000  -0.0000000
 NQMom=    0.0000000   0.0000000   0.0000000   0.0000000   0.0000000   0.0000000   0.0000000   0.0000000   0.0000000   0.0000000
 NMagM=    0.0000000   2.7928460   2.7928460   2.7928460   0.0000000   2.7928460   2.7928460   2.7928460   0.0000000   2.7928460
 AtZNuc=   6.0000000   1.0000000   1.0000000   1.0000000   6.0000000   1.0000000   1.0000000   1.0000000   6.0000000   1.0000000

  Atom        61          62          63          64          65          66          67          68          69          70
 IAtWgt=           1           1          12           1           1           1          14          14           1           1
 AtmWgt=   1.0078250   1.0078250  12.0000000   1.0078250   1.0078250   1.0078250  14.0030740  14.0030740   1.0078250   1.0078250
 NucSpn=           1           1           0           1           1           1           2           2           1           1
 AtZEff=  -0.0000000  -0.0000000  -0.0000000  -0.0000000  -0.0000000  -0.0000000  -0.0000000  -0.0000000  -0.0000000  -0.0000000
 NQMom=    0.0000000   0.0000000   0.0000000   0.0000000   0.0000000   0.0000000   2.0440000   2.0440000   0.0000000   0.0000000
 NMagM=    2.7928460   2.7928460   0.0000000   2.7928460   2.7928460   2.7928460   0.4037610   0.4037610   2.7928460   2.7928460
 AtZNuc=   1.0000000   1.0000000   6.0000000   1.0000000   1.0000000   1.0000000   7.0000000   7.0000000   1.0000000   1.0000000

  Atom        71          72          73          74          75          76          77          78          79          80
 IAtWgt=           1           1           1          12          16          16          16          16           1           1
 AtmWgt=   1.0078250   1.0078250   1.0078250  12.0000000  15.9949146  15.9949146  15.9949146  15.9949146   1.0078250   1.0078250
 NucSpn=           1           1           1           0           0           0           0           0           1           1
 AtZEff=  -0.0000000  -0.0000000  -0.0000000  -0.0000000  -0.0000000  -0.0000000  -0.0000000  -0.0000000  -0.0000000  -0.0000000
 NQMom=    0.0000000   0.0000000   0.0000000   0.0000000   0.0000000   0.0000000   0.0000000   0.0000000   0.0000000   0.0000000
 NMagM=    2.7928460   2.7928460   2.7928460   0.0000000   0.0000000   0.0000000   0.0000000   0.0000000   2.7928460   2.7928460
 AtZNuc=   1.0000000   1.0000000   1.0000000   6.0000000   8.0000000   8.0000000   8.0000000   8.0000000   1.0000000   1.0000000
 Leave Link  101 at Thu Mar 28 10:27:48 2024, MaxMem=  1342177280 cpu:               8.7 elap:               0.3
 (Enter /packages/apps/gaussian/g16/g16/l103.exe)

 GradGradGradGradGradGradGradGradGradGradGradGradGradGradGradGradGradGrad
 Berny optimization.
 Initialization pass.
                           ----------------------------
                           !    Initial Parameters    !
                           ! (Angstroms and Degrees)  !
 --------------------------                            --------------------------
 ! Name  Definition              Value          Derivative Info.                !
 --------------------------------------------------------------------------------
 ! R1    R(1,2)                  1.5317         estimate D2E/DX2                !
 ! R2    R(1,3)                  1.0902         estimate D2E/DX2                !
 ! R3    R(1,4)                  1.0911         estimate D2E/DX2                !
 ! R4    R(1,5)                  1.0917         estimate D2E/DX2                !
 ! R5    R(2,6)                  1.5339         estimate D2E/DX2                !
 ! R6    R(2,7)                  1.0941         estimate D2E/DX2                !
 ! R7    R(2,17)                 1.5174         estimate D2E/DX2                !
 ! R8    R(6,8)                  1.5304         estimate D2E/DX2                !
 ! R9    R(6,69)                 1.093          estimate D2E/DX2                !
 ! R10   R(6,70)                 1.0921         estimate D2E/DX2                !
 ! R11   R(8,9)                  1.0929         estimate D2E/DX2                !
 ! R12   R(8,10)                 1.0928         estimate D2E/DX2                !
 ! R13   R(8,11)                 1.5381         estimate D2E/DX2                !
 ! R14   R(11,12)                1.5337         estimate D2E/DX2                !
 ! R15   R(11,27)                1.5159         estimate D2E/DX2                !
 ! R16   R(11,73)                1.0955         estimate D2E/DX2                !
 ! R17   R(12,13)                1.524          estimate D2E/DX2                !
 ! R18   R(12,71)                1.0932         estimate D2E/DX2                !
 ! R19   R(12,72)                1.0927         estimate D2E/DX2                !
 ! R20   R(13,14)                1.09           estimate D2E/DX2                !
 ! R21   R(13,15)                1.0905         estimate D2E/DX2                !
 ! R22   R(13,16)                1.092          estimate D2E/DX2                !
 ! R23   R(17,18)                1.3938         estimate D2E/DX2                !
 ! R24   R(17,19)                1.3914         estimate D2E/DX2                !
 ! R25   R(18,20)                1.3837         estimate D2E/DX2                !
 ! R26   R(18,21)                1.0828         estimate D2E/DX2                !
 ! R27   R(19,22)                1.3878         estimate D2E/DX2                !
 ! R28   R(19,23)                1.0833         estimate D2E/DX2                !
 ! R29   R(20,24)                1.3937         estimate D2E/DX2                !
 ! R30   R(20,25)                1.0845         estimate D2E/DX2                !
 ! R31   R(22,24)                1.3908         estimate D2E/DX2                !
 ! R32   R(22,26)                1.0839         estimate D2E/DX2                !
 ! R33   R(24,40)                1.5007         estimate D2E/DX2                !
 ! R34   R(27,28)                1.3906         estimate D2E/DX2                !
 ! R35   R(27,29)                1.3927         estimate D2E/DX2                !
 ! R36   R(28,30)                1.388          estimate D2E/DX2                !
 ! R37   R(28,31)                1.0832         estimate D2E/DX2                !
 ! R38   R(29,32)                1.3832         estimate D2E/DX2                !
 ! R39   R(29,33)                1.0824         estimate D2E/DX2                !
 ! R40   R(30,34)                1.3916         estimate D2E/DX2                !
 ! R41   R(30,35)                1.0841         estimate D2E/DX2                !
 ! R42   R(32,34)                1.394          estimate D2E/DX2                !
 ! R43   R(32,36)                1.0811         estimate D2E/DX2                !
 ! R44   R(34,37)                1.5015         estimate D2E/DX2                !
 ! R45   R(37,38)                1.1009         estimate D2E/DX2                !
 ! R46   R(37,39)                1.0892         estimate D2E/DX2                !
 ! R47   R(37,67)                1.5236         estimate D2E/DX2                !
 ! R48   R(38,77)                1.9151         estimate D2E/DX2                !
 ! R49   R(40,41)                1.097          estimate D2E/DX2                !
 ! R50   R(40,42)                1.0889         estimate D2E/DX2                !
 ! R51   R(40,68)                1.524          estimate D2E/DX2                !
 ! R52   R(43,44)                1.088          estimate D2E/DX2                !
 ! R53   R(43,45)                1.0973         estimate D2E/DX2                !
 ! R54   R(43,46)                1.088          estimate D2E/DX2                !
 ! R55   R(43,67)                1.4961         estimate D2E/DX2                !
 ! R56   R(45,75)                1.9381         estimate D2E/DX2                !
 ! R57   R(47,48)                1.0849         estimate D2E/DX2                !
 ! R58   R(47,49)                1.0943         estimate D2E/DX2                !
 ! R59   R(47,50)                1.0885         estimate D2E/DX2                !
 ! R60   R(47,67)                1.4967         estimate D2E/DX2                !
 ! R61   R(49,75)                2.0671         estimate D2E/DX2                !
 ! R62   R(51,52)                1.0879         estimate D2E/DX2                !
 ! R63   R(51,53)                1.0859         estimate D2E/DX2                !
 ! R64   R(51,54)                1.0872         estimate D2E/DX2                !
 ! R65   R(51,67)                1.4805         estimate D2E/DX2                !
 ! R66   R(55,56)                1.0882         estimate D2E/DX2                !
 ! R67   R(55,57)                1.0981         estimate D2E/DX2                !
 ! R68   R(55,58)                1.0878         estimate D2E/DX2                !
 ! R69   R(55,68)                1.4963         estimate D2E/DX2                !
 ! R70   R(57,76)                1.9626         estimate D2E/DX2                !
 ! R71   R(59,60)                1.0879         estimate D2E/DX2                !
 ! R72   R(59,61)                1.0862         estimate D2E/DX2                !
 ! R73   R(59,62)                1.0872         estimate D2E/DX2                !
 ! R74   R(59,68)                1.4801         estimate D2E/DX2                !
 ! R75   R(63,64)                1.0857         estimate D2E/DX2                !
 ! R76   R(63,65)                1.097          estimate D2E/DX2                !
 ! R77   R(63,66)                1.0883         estimate D2E/DX2                !
 ! R78   R(63,68)                1.4961         estimate D2E/DX2                !
 ! R79   R(65,76)                2.0122         estimate D2E/DX2                !
 ! R80   R(74,75)                1.2705         estimate D2E/DX2                !
 ! R81   R(74,76)                1.2681         estimate D2E/DX2                !
 ! R82   R(74,77)                1.3303         estimate D2E/DX2                !
 ! R83   R(77,80)                1.618          estimate D2E/DX2                !
 ! R84   R(78,79)                0.956          estimate D2E/DX2                !
 ! R85   R(78,80)                1.0004         estimate D2E/DX2                !
 ! A1    A(2,1,3)              111.1481         estimate D2E/DX2                !
 ! A2    A(2,1,4)              110.8017         estimate D2E/DX2                !
 ! A3    A(2,1,5)              110.6146         estimate D2E/DX2                !
 ! A4    A(3,1,4)              108.3503         estimate D2E/DX2                !
 ! A5    A(3,1,5)              107.8133         estimate D2E/DX2                !
 ! A6    A(4,1,5)              107.9931         estimate D2E/DX2                !
 ! A7    A(1,2,6)              110.7747         estimate D2E/DX2                !
 ! A8    A(1,2,7)              107.9565         estimate D2E/DX2                !
 ! A9    A(1,2,17)             110.6124         estimate D2E/DX2                !
 ! A10   A(6,2,7)              107.9706         estimate D2E/DX2                !
 ! A11   A(6,2,17)             112.0303         estimate D2E/DX2                !
 ! A12   A(7,2,17)             107.3121         estimate D2E/DX2                !
 ! A13   A(2,6,8)              114.1381         estimate D2E/DX2                !
 ! A14   A(2,6,69)             108.8404         estimate D2E/DX2                !
 ! A15   A(2,6,70)             108.4524         estimate D2E/DX2                !
 ! A16   A(8,6,69)             109.5032         estimate D2E/DX2                !
 ! A17   A(8,6,70)             109.7855         estimate D2E/DX2                !
 ! A18   A(69,6,70)            105.7801         estimate D2E/DX2                !
 ! A19   A(6,8,9)              109.5717         estimate D2E/DX2                !
 ! A20   A(6,8,10)             109.7687         estimate D2E/DX2                !
 ! A21   A(6,8,11)             113.448          estimate D2E/DX2                !
 ! A22   A(9,8,10)             106.2657         estimate D2E/DX2                !
 ! A23   A(9,8,11)             109.2287         estimate D2E/DX2                !
 ! A24   A(10,8,11)            108.3007         estimate D2E/DX2                !
 ! A25   A(8,11,12)            111.2613         estimate D2E/DX2                !
 ! A26   A(8,11,27)            109.786          estimate D2E/DX2                !
 ! A27   A(8,11,73)            108.0308         estimate D2E/DX2                !
 ! A28   A(12,11,27)           112.5252         estimate D2E/DX2                !
 ! A29   A(12,11,73)           107.4708         estimate D2E/DX2                !
 ! A30   A(27,11,73)           107.571          estimate D2E/DX2                !
 ! A31   A(11,12,13)           113.6076         estimate D2E/DX2                !
 ! A32   A(11,12,71)           109.3855         estimate D2E/DX2                !
 ! A33   A(11,12,72)           108.1303         estimate D2E/DX2                !
 ! A34   A(13,12,71)           109.7531         estimate D2E/DX2                !
 ! A35   A(13,12,72)           109.5863         estimate D2E/DX2                !
 ! A36   A(71,12,72)           106.0939         estimate D2E/DX2                !
 ! A37   A(12,13,14)           111.1271         estimate D2E/DX2                !
 ! A38   A(12,13,15)           111.1573         estimate D2E/DX2                !
 ! A39   A(12,13,16)           110.9073         estimate D2E/DX2                !
 ! A40   A(14,13,15)           107.9491         estimate D2E/DX2                !
 ! A41   A(14,13,16)           107.857          estimate D2E/DX2                !
 ! A42   A(15,13,16)           107.6913         estimate D2E/DX2                !
 ! A43   A(2,17,18)            121.279          estimate D2E/DX2                !
 ! A44   A(2,17,19)            120.7852         estimate D2E/DX2                !
 ! A45   A(18,17,19)           117.9355         estimate D2E/DX2                !
 ! A46   A(17,18,20)           121.312          estimate D2E/DX2                !
 ! A47   A(17,18,21)           120.0734         estimate D2E/DX2                !
 ! A48   A(20,18,21)           118.5737         estimate D2E/DX2                !
 ! A49   A(17,19,22)           121.0355         estimate D2E/DX2                !
 ! A50   A(17,19,23)           119.4235         estimate D2E/DX2                !
 ! A51   A(22,19,23)           119.5341         estimate D2E/DX2                !
 ! A52   A(18,20,24)           120.4784         estimate D2E/DX2                !
 ! A53   A(18,20,25)           121.4            estimate D2E/DX2                !
 ! A54   A(24,20,25)           118.0454         estimate D2E/DX2                !
 ! A55   A(19,22,24)           120.6902         estimate D2E/DX2                !
 ! A56   A(19,22,26)           119.413          estimate D2E/DX2                !
 ! A57   A(24,22,26)           119.8804         estimate D2E/DX2                !
 ! A58   A(20,24,22)           118.5339         estimate D2E/DX2                !
 ! A59   A(20,24,40)           119.2037         estimate D2E/DX2                !
 ! A60   A(22,24,40)           122.1696         estimate D2E/DX2                !
 ! A61   A(11,27,28)           121.3723         estimate D2E/DX2                !
 ! A62   A(11,27,29)           120.6603         estimate D2E/DX2                !
 ! A63   A(28,27,29)           117.867          estimate D2E/DX2                !
 ! A64   A(27,28,30)           120.9166         estimate D2E/DX2                !
 ! A65   A(27,28,31)           119.4677         estimate D2E/DX2                !
 ! A66   A(30,28,31)           119.6004         estimate D2E/DX2                !
 ! A67   A(27,29,32)           121.5276         estimate D2E/DX2                !
 ! A68   A(27,29,33)           120.0731         estimate D2E/DX2                !
 ! A69   A(32,29,33)           118.3482         estimate D2E/DX2                !
 ! A70   A(28,30,34)           120.9221         estimate D2E/DX2                !
 ! A71   A(28,30,35)           119.36           estimate D2E/DX2                !
 ! A72   A(34,30,35)           119.7015         estimate D2E/DX2                !
 ! A73   A(29,32,34)           120.4281         estimate D2E/DX2                !
 ! A74   A(29,32,36)           119.3824         estimate D2E/DX2                !
 ! A75   A(34,32,36)           120.1441         estimate D2E/DX2                !
 ! A76   A(30,34,32)           118.3254         estimate D2E/DX2                !
 ! A77   A(30,34,37)           120.8656         estimate D2E/DX2                !
 ! A78   A(32,34,37)           120.6564         estimate D2E/DX2                !
 ! A79   A(34,37,38)           109.8189         estimate D2E/DX2                !
 ! A80   A(34,37,39)           110.1876         estimate D2E/DX2                !
 ! A81   A(34,37,67)           115.181          estimate D2E/DX2                !
 ! A82   A(38,37,39)           110.7735         estimate D2E/DX2                !
 ! A83   A(38,37,67)           105.5525         estimate D2E/DX2                !
 ! A84   A(39,37,67)           105.1633         estimate D2E/DX2                !
 ! A85   A(37,38,77)           161.6759         estimate D2E/DX2                !
 ! A86   A(24,40,41)           109.2413         estimate D2E/DX2                !
 ! A87   A(24,40,42)           111.3084         estimate D2E/DX2                !
 ! A88   A(24,40,68)           114.7072         estimate D2E/DX2                !
 ! A89   A(41,40,42)           110.9509         estimate D2E/DX2                !
 ! A90   A(41,40,68)           104.9062         estimate D2E/DX2                !
 ! A91   A(42,40,68)           105.5238         estimate D2E/DX2                !
 ! A92   A(44,43,45)           110.5175         estimate D2E/DX2                !
 ! A93   A(44,43,46)           109.9749         estimate D2E/DX2                !
 ! A94   A(44,43,67)           108.124          estimate D2E/DX2                !
 ! A95   A(45,43,46)           112.6159         estimate D2E/DX2                !
 ! A96   A(45,43,67)           106.9591         estimate D2E/DX2                !
 ! A97   A(46,43,67)           108.4858         estimate D2E/DX2                !
 ! A98   A(43,45,75)           151.4766         estimate D2E/DX2                !
 ! A99   A(48,47,49)           111.8377         estimate D2E/DX2                !
 ! A100  A(48,47,50)           110.2289         estimate D2E/DX2                !
 ! A101  A(48,47,67)           109.2467         estimate D2E/DX2                !
 ! A102  A(49,47,50)           111.1331         estimate D2E/DX2                !
 ! A103  A(49,47,67)           106.5457         estimate D2E/DX2                !
 ! A104  A(50,47,67)           107.6796         estimate D2E/DX2                !
 ! A105  A(47,49,75)           148.2679         estimate D2E/DX2                !
 ! A106  A(52,51,53)           109.6461         estimate D2E/DX2                !
 ! A107  A(52,51,54)           109.8702         estimate D2E/DX2                !
 ! A108  A(52,51,67)           109.1218         estimate D2E/DX2                !
 ! A109  A(53,51,54)           110.1691         estimate D2E/DX2                !
 ! A110  A(53,51,67)           109.3468         estimate D2E/DX2                !
 ! A111  A(54,51,67)           108.6634         estimate D2E/DX2                !
 ! A112  A(56,55,57)           110.2314         estimate D2E/DX2                !
 ! A113  A(56,55,58)           110.0905         estimate D2E/DX2                !
 ! A114  A(56,55,68)           108.1701         estimate D2E/DX2                !
 ! A115  A(57,55,58)           112.6927         estimate D2E/DX2                !
 ! A116  A(57,55,68)           107.0269         estimate D2E/DX2                !
 ! A117  A(58,55,68)           108.4681         estimate D2E/DX2                !
 ! A118  A(55,57,76)           152.1553         estimate D2E/DX2                !
 ! A119  A(60,59,61)           109.8442         estimate D2E/DX2                !
 ! A120  A(60,59,62)           109.823          estimate D2E/DX2                !
 ! A121  A(60,59,68)           109.042          estimate D2E/DX2                !
 ! A122  A(61,59,62)           110.0096         estimate D2E/DX2                !
 ! A123  A(61,59,68)           109.2878         estimate D2E/DX2                !
 ! A124  A(62,59,68)           108.8103         estimate D2E/DX2                !
 ! A125  A(64,63,65)           113.0665         estimate D2E/DX2                !
 ! A126  A(64,63,66)           110.1753         estimate D2E/DX2                !
 ! A127  A(64,63,68)           108.7285         estimate D2E/DX2                !
 ! A128  A(65,63,66)           110.1603         estimate D2E/DX2                !
 ! A129  A(65,63,68)           106.9289         estimate D2E/DX2                !
 ! A130  A(66,63,68)           107.573          estimate D2E/DX2                !
 ! A131  A(63,65,76)           149.3679         estimate D2E/DX2                !
 ! A132  A(37,67,43)           107.248          estimate D2E/DX2                !
 ! A133  A(37,67,47)           110.2249         estimate D2E/DX2                !
 ! A134  A(37,67,51)           111.2264         estimate D2E/DX2                !
 ! A135  A(43,67,47)           107.7481         estimate D2E/DX2                !
 ! A136  A(43,67,51)           110.0412         estimate D2E/DX2                !
 ! A137  A(47,67,51)           110.2463         estimate D2E/DX2                !
 ! A138  A(40,68,55)           107.0582         estimate D2E/DX2                !
 ! A139  A(40,68,59)           111.0641         estimate D2E/DX2                !
 ! A140  A(40,68,63)           110.5621         estimate D2E/DX2                !
 ! A141  A(55,68,59)           110.151          estimate D2E/DX2                !
 ! A142  A(55,68,63)           107.8125         estimate D2E/DX2                !
 ! A143  A(59,68,63)           110.0957         estimate D2E/DX2                !
 ! A144  A(75,74,76)           123.8514         estimate D2E/DX2                !
 ! A145  A(75,74,77)           117.8803         estimate D2E/DX2                !
 ! A146  A(76,74,77)           118.2682         estimate D2E/DX2                !
 ! A147  A(45,75,49)            68.3974         estimate D2E/DX2                !
 ! A148  A(45,75,74)           129.4682         estimate D2E/DX2                !
 ! A149  A(49,75,74)           107.2206         estimate D2E/DX2                !
 ! A150  A(57,76,65)            68.0495         estimate D2E/DX2                !
 ! A151  A(57,76,74)           122.7836         estimate D2E/DX2                !
 ! A152  A(65,76,74)           105.8317         estimate D2E/DX2                !
 ! A153  A(38,77,74)            99.5846         estimate D2E/DX2                !
 ! A154  A(38,77,80)           105.3573         estimate D2E/DX2                !
 ! A155  A(74,77,80)           109.8627         estimate D2E/DX2                !
 ! A156  A(79,78,80)           104.5            estimate D2E/DX2                !
 ! A157  L(77,80,78,2,-1)      174.6812         estimate D2E/DX2                !
 ! A158  L(77,80,78,2,-2)      179.5884         estimate D2E/DX2                !
 ! D1    D(3,1,2,6)           -179.1867         estimate D2E/DX2                !
 ! D2    D(3,1,2,7)            -61.1639         estimate D2E/DX2                !
 ! D3    D(3,1,2,17)            55.9719         estimate D2E/DX2                !
 ! D4    D(4,1,2,6)            -58.6524         estimate D2E/DX2                !
 ! D5    D(4,1,2,7)             59.3705         estimate D2E/DX2                !
 ! D6    D(4,1,2,17)           176.5063         estimate D2E/DX2                !
 ! D7    D(5,1,2,6)             61.0802         estimate D2E/DX2                !
 ! D8    D(5,1,2,7)            179.103          estimate D2E/DX2                !
 ! D9    D(5,1,2,17)           -63.7612         estimate D2E/DX2                !
 ! D10   D(1,2,6,8)            173.0814         estimate D2E/DX2                !
 ! D11   D(1,2,6,69)            50.4341         estimate D2E/DX2                !
 ! D12   D(1,2,6,70)           -64.1966         estimate D2E/DX2                !
 ! D13   D(7,2,6,8)             55.0672         estimate D2E/DX2                !
 ! D14   D(7,2,6,69)           -67.5801         estimate D2E/DX2                !
 ! D15   D(7,2,6,70)           177.7891         estimate D2E/DX2                !
 ! D16   D(17,2,6,8)           -62.8844         estimate D2E/DX2                !
 ! D17   D(17,2,6,69)          174.4683         estimate D2E/DX2                !
 ! D18   D(17,2,6,70)           59.8375         estimate D2E/DX2                !
 ! D19   D(1,2,17,18)           71.6617         estimate D2E/DX2                !
 ! D20   D(1,2,17,19)         -108.5445         estimate D2E/DX2                !
 ! D21   D(6,2,17,18)          -52.4631         estimate D2E/DX2                !
 ! D22   D(6,2,17,19)          127.3307         estimate D2E/DX2                !
 ! D23   D(7,2,17,18)         -170.8061         estimate D2E/DX2                !
 ! D24   D(7,2,17,19)            8.9876         estimate D2E/DX2                !
 ! D25   D(2,6,8,9)            -85.4556         estimate D2E/DX2                !
 ! D26   D(2,6,8,10)            30.8822         estimate D2E/DX2                !
 ! D27   D(2,6,8,11)           152.1869         estimate D2E/DX2                !
 ! D28   D(69,6,8,9)            36.8294         estimate D2E/DX2                !
 ! D29   D(69,6,8,10)          153.1673         estimate D2E/DX2                !
 ! D30   D(69,6,8,11)          -85.528          estimate D2E/DX2                !
 ! D31   D(70,6,8,9)           152.5518         estimate D2E/DX2                !
 ! D32   D(70,6,8,10)          -91.1103         estimate D2E/DX2                !
 ! D33   D(70,6,8,11)           30.1944         estimate D2E/DX2                !
 ! D34   D(6,8,11,12)          167.8929         estimate D2E/DX2                !
 ! D35   D(6,8,11,27)          -66.8787         estimate D2E/DX2                !
 ! D36   D(6,8,11,73)           50.1541         estimate D2E/DX2                !
 ! D37   D(9,8,11,12)           45.3455         estimate D2E/DX2                !
 ! D38   D(9,8,11,27)          170.5738         estimate D2E/DX2                !
 ! D39   D(9,8,11,73)          -72.3934         estimate D2E/DX2                !
 ! D40   D(10,8,11,12)         -69.9828         estimate D2E/DX2                !
 ! D41   D(10,8,11,27)          55.2456         estimate D2E/DX2                !
 ! D42   D(10,8,11,73)         172.2784         estimate D2E/DX2                !
 ! D43   D(8,11,12,13)        -177.7616         estimate D2E/DX2                !
 ! D44   D(8,11,12,71)          59.2282         estimate D2E/DX2                !
 ! D45   D(8,11,12,72)         -55.887          estimate D2E/DX2                !
 ! D46   D(27,11,12,13)         58.5551         estimate D2E/DX2                !
 ! D47   D(27,11,12,71)        -64.4551         estimate D2E/DX2                !
 ! D48   D(27,11,12,72)       -179.5704         estimate D2E/DX2                !
 ! D49   D(73,11,12,13)        -59.6843         estimate D2E/DX2                !
 ! D50   D(73,11,12,71)        177.3055         estimate D2E/DX2                !
 ! D51   D(73,11,12,72)         62.1903         estimate D2E/DX2                !
 ! D52   D(8,11,27,28)         110.28           estimate D2E/DX2                !
 ! D53   D(8,11,27,29)         -65.9975         estimate D2E/DX2                !
 ! D54   D(12,11,27,28)       -125.2207         estimate D2E/DX2                !
 ! D55   D(12,11,27,29)         58.5018         estimate D2E/DX2                !
 ! D56   D(73,11,27,28)         -7.0403         estimate D2E/DX2                !
 ! D57   D(73,11,27,29)        176.6822         estimate D2E/DX2                !
 ! D58   D(11,12,13,14)        177.5391         estimate D2E/DX2                !
 ! D59   D(11,12,13,15)        -62.2088         estimate D2E/DX2                !
 ! D60   D(11,12,13,16)         57.5708         estimate D2E/DX2                !
 ! D61   D(71,12,13,14)        -59.6526         estimate D2E/DX2                !
 ! D62   D(71,12,13,15)         60.5994         estimate D2E/DX2                !
 ! D63   D(71,12,13,16)       -179.621          estimate D2E/DX2                !
 ! D64   D(72,12,13,14)         56.4772         estimate D2E/DX2                !
 ! D65   D(72,12,13,15)        176.7292         estimate D2E/DX2                !
 ! D66   D(72,12,13,16)        -63.4912         estimate D2E/DX2                !
 ! D67   D(2,17,18,20)         179.8432         estimate D2E/DX2                !
 ! D68   D(2,17,18,21)           2.2015         estimate D2E/DX2                !
 ! D69   D(19,17,18,20)          0.0438         estimate D2E/DX2                !
 ! D70   D(19,17,18,21)       -177.598          estimate D2E/DX2                !
 ! D71   D(2,17,19,22)         179.7448         estimate D2E/DX2                !
 ! D72   D(2,17,19,23)          -1.2096         estimate D2E/DX2                !
 ! D73   D(18,17,19,22)         -0.4547         estimate D2E/DX2                !
 ! D74   D(18,17,19,23)        178.5908         estimate D2E/DX2                !
 ! D75   D(17,18,20,24)          0.9231         estimate D2E/DX2                !
 ! D76   D(17,18,20,25)       -175.8421         estimate D2E/DX2                !
 ! D77   D(21,18,20,24)        178.5993         estimate D2E/DX2                !
 ! D78   D(21,18,20,25)          1.8341         estimate D2E/DX2                !
 ! D79   D(17,19,22,24)         -0.0976         estimate D2E/DX2                !
 ! D80   D(17,19,22,26)        178.4278         estimate D2E/DX2                !
 ! D81   D(23,19,22,24)       -179.1421         estimate D2E/DX2                !
 ! D82   D(23,19,22,26)         -0.6167         estimate D2E/DX2                !
 ! D83   D(18,20,24,22)         -1.4525         estimate D2E/DX2                !
 ! D84   D(18,20,24,40)       -178.027          estimate D2E/DX2                !
 ! D85   D(25,20,24,22)        175.4192         estimate D2E/DX2                !
 ! D86   D(25,20,24,40)         -1.1554         estimate D2E/DX2                !
 ! D87   D(19,22,24,20)          1.0473         estimate D2E/DX2                !
 ! D88   D(19,22,24,40)        177.5148         estimate D2E/DX2                !
 ! D89   D(26,22,24,20)       -177.4712         estimate D2E/DX2                !
 ! D90   D(26,22,24,40)         -1.0037         estimate D2E/DX2                !
 ! D91   D(20,24,40,41)         26.1282         estimate D2E/DX2                !
 ! D92   D(20,24,40,42)        148.993          estimate D2E/DX2                !
 ! D93   D(20,24,40,68)        -91.2917         estimate D2E/DX2                !
 ! D94   D(22,24,40,41)       -150.3165         estimate D2E/DX2                !
 ! D95   D(22,24,40,42)        -27.4516         estimate D2E/DX2                !
 ! D96   D(22,24,40,68)         92.2637         estimate D2E/DX2                !
 ! D97   D(11,27,28,30)       -175.246          estimate D2E/DX2                !
 ! D98   D(11,27,28,31)          3.321          estimate D2E/DX2                !
 ! D99   D(29,27,28,30)          1.132          estimate D2E/DX2                !
 ! D100  D(29,27,28,31)        179.699          estimate D2E/DX2                !
 ! D101  D(11,27,29,32)        175.0156         estimate D2E/DX2                !
 ! D102  D(11,27,29,33)         -2.3398         estimate D2E/DX2                !
 ! D103  D(28,27,29,32)         -1.3894         estimate D2E/DX2                !
 ! D104  D(28,27,29,33)       -178.7447         estimate D2E/DX2                !
 ! D105  D(27,28,30,34)         -0.2821         estimate D2E/DX2                !
 ! D106  D(27,28,30,35)        178.2405         estimate D2E/DX2                !
 ! D107  D(31,28,30,34)       -178.8472         estimate D2E/DX2                !
 ! D108  D(31,28,30,35)         -0.3246         estimate D2E/DX2                !
 ! D109  D(27,29,32,34)          0.7882         estimate D2E/DX2                !
 ! D110  D(27,29,32,36)       -176.7659         estimate D2E/DX2                !
 ! D111  D(33,29,32,34)        178.1878         estimate D2E/DX2                !
 ! D112  D(33,29,32,36)          0.6337         estimate D2E/DX2                !
 ! D113  D(28,30,34,32)         -0.3494         estimate D2E/DX2                !
 ! D114  D(28,30,34,37)        175.1904         estimate D2E/DX2                !
 ! D115  D(35,30,34,32)       -178.867          estimate D2E/DX2                !
 ! D116  D(35,30,34,37)         -3.3273         estimate D2E/DX2                !
 ! D117  D(29,32,34,30)          0.1012         estimate D2E/DX2                !
 ! D118  D(29,32,34,37)       -175.4482         estimate D2E/DX2                !
 ! D119  D(36,32,34,30)        177.6367         estimate D2E/DX2                !
 ! D120  D(36,32,34,37)          2.0872         estimate D2E/DX2                !
 ! D121  D(30,34,37,38)       -140.8913         estimate D2E/DX2                !
 ! D122  D(30,34,37,39)        -18.6022         estimate D2E/DX2                !
 ! D123  D(30,34,37,67)        100.1372         estimate D2E/DX2                !
 ! D124  D(32,34,37,38)         34.5443         estimate D2E/DX2                !
 ! D125  D(32,34,37,39)        156.8335         estimate D2E/DX2                !
 ! D126  D(32,34,37,67)        -84.4271         estimate D2E/DX2                !
 ! D127  D(34,37,38,77)        -28.8122         estimate D2E/DX2                !
 ! D128  D(39,37,38,77)       -150.7527         estimate D2E/DX2                !
 ! D129  D(67,37,38,77)         95.9212         estimate D2E/DX2                !
 ! D130  D(34,37,67,43)       -170.017          estimate D2E/DX2                !
 ! D131  D(34,37,67,47)         72.9475         estimate D2E/DX2                !
 ! D132  D(34,37,67,51)        -49.65           estimate D2E/DX2                !
 ! D133  D(38,37,67,43)         68.6681         estimate D2E/DX2                !
 ! D134  D(38,37,67,47)        -48.3674         estimate D2E/DX2                !
 ! D135  D(38,37,67,51)       -170.9649         estimate D2E/DX2                !
 ! D136  D(39,37,67,43)        -48.5165         estimate D2E/DX2                !
 ! D137  D(39,37,67,47)       -165.5521         estimate D2E/DX2                !
 ! D138  D(39,37,67,51)         71.8505         estimate D2E/DX2                !
 ! D139  D(37,38,77,74)       -147.8363         estimate D2E/DX2                !
 ! D140  D(37,38,77,80)        -34.0258         estimate D2E/DX2                !
 ! D141  D(24,40,68,55)        178.6092         estimate D2E/DX2                !
 ! D142  D(24,40,68,59)        -61.1039         estimate D2E/DX2                !
 ! D143  D(24,40,68,63)         61.4249         estimate D2E/DX2                !
 ! D144  D(41,40,68,55)         58.7504         estimate D2E/DX2                !
 ! D145  D(41,40,68,59)        179.0374         estimate D2E/DX2                !
 ! D146  D(41,40,68,63)        -58.4339         estimate D2E/DX2                !
 ! D147  D(42,40,68,55)        -58.5058         estimate D2E/DX2                !
 ! D148  D(42,40,68,59)         61.7812         estimate D2E/DX2                !
 ! D149  D(42,40,68,63)       -175.6901         estimate D2E/DX2                !
 ! D150  D(44,43,45,75)         88.7898         estimate D2E/DX2                !
 ! D151  D(46,43,45,75)       -147.7724         estimate D2E/DX2                !
 ! D152  D(67,43,45,75)        -28.6855         estimate D2E/DX2                !
 ! D153  D(44,43,67,37)       -178.8038         estimate D2E/DX2                !
 ! D154  D(44,43,67,47)        -60.1547         estimate D2E/DX2                !
 ! D155  D(44,43,67,51)         60.0788         estimate D2E/DX2                !
 ! D156  D(45,43,67,37)        -59.767          estimate D2E/DX2                !
 ! D157  D(45,43,67,47)         58.8821         estimate D2E/DX2                !
 ! D158  D(45,43,67,51)        179.1156         estimate D2E/DX2                !
 ! D159  D(46,43,67,37)         61.959          estimate D2E/DX2                !
 ! D160  D(46,43,67,47)       -179.3918         estimate D2E/DX2                !
 ! D161  D(46,43,67,51)        -59.1583         estimate D2E/DX2                !
 ! D162  D(43,45,75,49)         -3.7039         estimate D2E/DX2                !
 ! D163  D(43,45,75,74)         91.2536         estimate D2E/DX2                !
 ! D164  D(48,47,49,75)        139.154          estimate D2E/DX2                !
 ! D165  D(50,47,49,75)        -97.1864         estimate D2E/DX2                !
 ! D166  D(67,47,49,75)         19.8456         estimate D2E/DX2                !
 ! D167  D(48,47,67,37)        -59.241          estimate D2E/DX2                !
 ! D168  D(48,47,67,43)       -175.9655         estimate D2E/DX2                !
 ! D169  D(48,47,67,51)         63.9304         estimate D2E/DX2                !
 ! D170  D(49,47,67,37)         61.7396         estimate D2E/DX2                !
 ! D171  D(49,47,67,43)        -54.985          estimate D2E/DX2                !
 ! D172  D(49,47,67,51)       -175.0891         estimate D2E/DX2                !
 ! D173  D(50,47,67,37)       -178.9561         estimate D2E/DX2                !
 ! D174  D(50,47,67,43)         64.3194         estimate D2E/DX2                !
 ! D175  D(50,47,67,51)        -55.7847         estimate D2E/DX2                !
 ! D176  D(47,49,75,45)          9.5674         estimate D2E/DX2                !
 ! D177  D(47,49,75,74)       -116.8046         estimate D2E/DX2                !
 ! D178  D(52,51,67,37)        -55.7834         estimate D2E/DX2                !
 ! D179  D(52,51,67,43)         62.92           estimate D2E/DX2                !
 ! D180  D(52,51,67,47)       -178.3685         estimate D2E/DX2                !
 ! D181  D(53,51,67,37)         64.1421         estimate D2E/DX2                !
 ! D182  D(53,51,67,43)       -177.1546         estimate D2E/DX2                !
 ! D183  D(53,51,67,47)        -58.4431         estimate D2E/DX2                !
 ! D184  D(54,51,67,37)       -175.5727         estimate D2E/DX2                !
 ! D185  D(54,51,67,43)        -56.8694         estimate D2E/DX2                !
 ! D186  D(54,51,67,47)         61.8421         estimate D2E/DX2                !
 ! D187  D(56,55,57,76)         82.8567         estimate D2E/DX2                !
 ! D188  D(58,55,57,76)       -153.713          estimate D2E/DX2                !
 ! D189  D(68,55,57,76)        -34.5592         estimate D2E/DX2                !
 ! D190  D(56,55,68,40)        176.4513         estimate D2E/DX2                !
 ! D191  D(56,55,68,59)         55.5832         estimate D2E/DX2                !
 ! D192  D(56,55,68,63)        -64.5708         estimate D2E/DX2                !
 ! D193  D(57,55,68,40)        -64.7877         estimate D2E/DX2                !
 ! D194  D(57,55,68,59)        174.3442         estimate D2E/DX2                !
 ! D195  D(57,55,68,63)         54.1902         estimate D2E/DX2                !
 ! D196  D(58,55,68,40)         57.0598         estimate D2E/DX2                !
 ! D197  D(58,55,68,59)        -63.8083         estimate D2E/DX2                !
 ! D198  D(58,55,68,63)        176.0377         estimate D2E/DX2                !
 ! D199  D(55,57,76,65)          7.6906         estimate D2E/DX2                !
 ! D200  D(55,57,76,74)        102.8711         estimate D2E/DX2                !
 ! D201  D(60,59,68,40)        -57.7048         estimate D2E/DX2                !
 ! D202  D(60,59,68,55)         60.7313         estimate D2E/DX2                !
 ! D203  D(60,59,68,63)        179.497          estimate D2E/DX2                !
 ! D204  D(61,59,68,40)         62.3783         estimate D2E/DX2                !
 ! D205  D(61,59,68,55)       -179.1856         estimate D2E/DX2                !
 ! D206  D(61,59,68,63)        -60.4199         estimate D2E/DX2                !
 ! D207  D(62,59,68,40)       -177.477          estimate D2E/DX2                !
 ! D208  D(62,59,68,55)        -59.041          estimate D2E/DX2                !
 ! D209  D(62,59,68,63)         59.7247         estimate D2E/DX2                !
 ! D210  D(64,63,65,76)        157.272          estimate D2E/DX2                !
 ! D211  D(66,63,65,76)        -78.9707         estimate D2E/DX2                !
 ! D212  D(68,63,65,76)         37.6412         estimate D2E/DX2                !
 ! D213  D(64,63,68,40)        -61.22           estimate D2E/DX2                !
 ! D214  D(64,63,68,55)       -177.9384         estimate D2E/DX2                !
 ! D215  D(64,63,68,59)         61.8727         estimate D2E/DX2                !
 ! D216  D(65,63,68,40)         61.1672         estimate D2E/DX2                !
 ! D217  D(65,63,68,55)        -55.5512         estimate D2E/DX2                !
 ! D218  D(65,63,68,59)       -175.7401         estimate D2E/DX2                !
 ! D219  D(66,63,68,40)        179.4803         estimate D2E/DX2                !
 ! D220  D(66,63,68,55)         62.7619         estimate D2E/DX2                !
 ! D221  D(66,63,68,59)        -57.427          estimate D2E/DX2                !
 ! D222  D(63,65,76,57)         -9.6057         estimate D2E/DX2                !
 ! D223  D(63,65,76,74)       -129.1121         estimate D2E/DX2                !
 ! D224  D(76,74,75,45)        122.7679         estimate D2E/DX2                !
 ! D225  D(76,74,75,49)       -161.3599         estimate D2E/DX2                !
 ! D226  D(77,74,75,45)        -57.1748         estimate D2E/DX2                !
 ! D227  D(77,74,75,49)         18.6973         estimate D2E/DX2                !
 ! D228  D(75,74,76,57)        135.1866         estimate D2E/DX2                !
 ! D229  D(75,74,76,65)       -151.0451         estimate D2E/DX2                !
 ! D230  D(77,74,76,57)        -44.8708         estimate D2E/DX2                !
 ! D231  D(77,74,76,65)         28.8975         estimate D2E/DX2                !
 ! D232  D(75,74,77,38)         39.3763         estimate D2E/DX2                !
 ! D233  D(75,74,77,80)        -70.9019         estimate D2E/DX2                !
 ! D234  D(76,74,77,38)       -140.5697         estimate D2E/DX2                !
 ! D235  D(76,74,77,80)        109.1521         estimate D2E/DX2                !
 ! D236  D(38,77,78,79)       -107.2788         estimate D2E/DX2                !
 ! D237  D(74,77,78,79)         -0.1119         estimate D2E/DX2                !
 --------------------------------------------------------------------------------
 Trust Radius=3.00D-01 FncErr=1.00D-07 GrdErr=1.00D-06 EigMax=2.50D+02 EigMin=1.00D-04
 Number of steps in this run=    480 maximum allowed number of steps=    480.
 GradGradGradGradGradGradGradGradGradGradGradGradGradGradGradGradGradGrad

 Leave Link  103 at Thu Mar 28 10:27:48 2024, MaxMem=  1342177280 cpu:               1.5 elap:               0.1
 (Enter /packages/apps/gaussian/g16/g16/l202.exe)
 Stoichiometry    C28H46N2O4
 Framework group  C1[X(C28H46N2O4)]
 Deg. of freedom   234
 Full point group                 C1      NOp   1
 Largest Abelian subgroup         C1      NOp   1
 Largest concise Abelian subgroup C1      NOp   1
                         Standard orientation:                         
 ---------------------------------------------------------------------
 Center     Atomic      Atomic             Coordinates (Angstroms)
 Number     Number       Type             X           Y           Z
 ---------------------------------------------------------------------
      1          6           0       -2.850331   -3.762224   -2.458415
      2          6           0       -2.918397   -3.214747   -1.029541
      3          1           0       -2.212924   -4.645022   -2.511407
      4          1           0       -3.844328   -4.034204   -2.816929
      5          1           0       -2.440082   -3.012798   -3.138042
      6          6           0       -3.833023   -1.985327   -0.960971
      7          1           0       -3.348855   -3.991784   -0.390733
      8          6           0       -4.090149   -1.474970    0.458769
      9          1           0       -4.924122   -2.026145    0.900516
     10          1           0       -3.220509   -1.679410    1.088194
     11          6           0       -4.388830    0.032495    0.522536
     12          6           0       -4.927628    0.434884    1.900946
     13          6           0       -5.292972    1.910697    2.006396
     14          1           0       -5.710778    2.142984    2.985983
     15          1           0       -4.418497    2.544436    1.855150
     16          1           0       -6.034740    2.183342    1.252766
     17          6           0       -1.526081   -2.918338   -0.504171
     18          6           0       -0.785579   -1.839925   -0.985030
     19          6           0       -0.951090   -3.717019    0.479403
     20          6           0        0.482875   -1.567101   -0.504136
     21          1           0       -1.214502   -1.172870   -1.722312
     22          6           0        0.324028   -3.453796    0.959915
     23          1           0       -1.514302   -4.547903    0.886794
     24          6           0        1.061359   -2.382683    0.466714
     25          1           0        1.033669   -0.690974   -0.828267
     26          1           0        0.736463   -4.077541    1.744581
     27          6           0       -3.152801    0.817543    0.130371
     28          6           0       -3.093661    1.524959   -1.065336
     29          6           0       -2.010316    0.787667    0.926259
     30          6           0       -1.924563    2.159670   -1.461332
     31          1           0       -3.965819    1.561171   -1.706766
     32          6           0       -0.840238    1.413461    0.535759
     33          1           0       -2.010286    0.230805    1.854446
     34          6           0       -0.780886    2.110602   -0.669995
     35          1           0       -1.898045    2.680013   -2.411981
     36          1           0        0.041257    1.324151    1.155172
     37          6           0        0.512436    2.705309   -1.147642
     38          1           0        1.352505    2.058149   -0.852064
     39          1           0        0.488659    2.837939   -2.228491
     40          6           0        2.420189   -2.034898    1.000343
     41          1           0        2.582899   -0.954765    0.898761
     42          1           0        2.530635   -2.349499    2.036957
     43          6           0        2.013533    4.607250   -1.349277
     44          1           0        2.273248    5.582855   -0.943592
     45          1           0        2.836477    3.897075   -1.199700
     46          1           0        1.728699    4.703378   -2.394896
     47          6           0        1.244583    3.971035    0.852434
     48          1           0        0.433832    3.525068    1.418803
     49          1           0        2.146071    3.351086    0.875014
     50          1           0        1.450098    4.975872    1.216920
     51          6           0       -0.309544    5.005340   -0.722533
     52          1           0       -0.606588    5.050388   -1.768152
     53          1           0       -1.138126    4.640314   -0.123002
     54          1           0       -0.006383    5.992182   -0.381669
     55          6           0        4.841699   -2.193771    0.898605
     56          1           0        5.682096   -2.691844    0.419269
     57          1           0        4.894533   -1.110400    0.727549
     58          1           0        4.808204   -2.450667    1.955058
     59          6           0        3.507844   -4.154945    0.324043
     60          1           0        3.505376   -4.460242    1.368238
     61          1           0        2.596265   -4.492241   -0.160906
     62          1           0        4.374753   -4.574224   -0.180618
     63          6           0        3.599132   -2.232847   -1.175370
     64          1           0        2.673669   -2.545504   -1.649219
     65          1           0        3.732084   -1.143927   -1.168713
     66          1           0        4.448679   -2.711502   -1.658724
     67          7           0        0.839838    4.082548   -0.584224
     68          7           0        3.581983   -2.678383    0.252799
     69          1           0       -4.785297   -2.226696   -1.440018
     70          1           0       -3.389796   -1.190653   -1.564854
     71          1           0       -4.190174    0.181183    2.666993
     72          1           0       -5.807970   -0.176526    2.113664
     73          1           0       -5.169218    0.254976   -0.213390
     74          6           0        3.633544    1.301067   -0.138357
     75          8           0        3.764935    2.564770   -0.141754
     76          8           0        4.583467    0.491485   -0.362815
     77          8           0        2.426744    0.801765    0.114889
     78          8           0        1.753413    1.108663    2.623700
     79          1           0        2.475389    1.552280    3.066283
     80          1           0        2.053758    1.028743    1.672825
 ---------------------------------------------------------------------
 Rotational constants (GHZ):           0.1287645           0.1060725           0.0679779
 Leave Link  202 at Thu Mar 28 10:27:49 2024, MaxMem=  1342177280 cpu:               3.4 elap:               0.1
 (Enter /packages/apps/gaussian/g16/g16/l301.exe)
 Standard basis: 6-311+G(2d,2p) (5D, 7F)
 Ernie: Thresh=  0.10000D-02 Tol=  0.10000D-05 Strict=F.
 There are  1400 symmetry adapted cartesian basis functions of A   symmetry.
 There are  1332 symmetry adapted basis functions of A   symmetry.
  1332 basis functions,  1934 primitive gaussians,  1400 cartesian basis functions
   130 alpha electrons      130 beta electrons
       nuclear repulsion energy      4020.9974946827 Hartrees.
 IExCor= 4639 DFT=T Ex+Corr=wB97XD ExCW=0 ScaHFX=  1.000000
 ScaDFX=  1.000000  1.000000  1.000000  1.000000 ScalE2=  1.000000  1.000000
 IRadAn=      5 IRanWt=     -1 IRanGd=            0 ICorTp=0 IEmpDi=121
 HFx  wShort=  0.000000 wLong=  0.200000 cFull=  0.222036 cShort=  0.000000 cLong=  0.777964
 DFx  wShort=  0.000000 wLong=  0.200000 cFull=  0.000000 cShort=  0.000000 cLong=  1.000000
 NAtoms=   80 NActive=   80 NUniq=   80 SFac= 1.00D+00 NAtFMM=   60 NAOKFM=T Big=T
 Integral buffers will be    131072 words long.
 Raffenetti 2 integral format.
 Two-electron integral symmetry is turned on.
 R6Disp:  Grimme-D2 Dispersion energy=       -0.0905927890 Hartrees.
 Nuclear repulsion after empirical dispersion term =     4020.9069018937 Hartrees.
 Leave Link  301 at Thu Mar 28 10:27:49 2024, MaxMem=  1342177280 cpu:               2.6 elap:               0.1
 (Enter /packages/apps/gaussian/g16/g16/l302.exe)
 NPDir=0 NMtPBC=     1 NCelOv=     1 NCel=       1 NClECP=     1 NCelD=      1
         NCelK=      1 NCelE2=     1 NClLst=     1 CellRange=     0.0.
 One-electron integrals computed using PRISM.
 One-electron integral symmetry used in STVInt
 NBasis=  1332 RedAO= T EigKep=  1.00D-06  NBF=  1332
 NBsUse=  1323 1.00D-06 EigRej=  9.21D-07 NBFU=  1323
 Precomputing XC quadrature grid using
 IXCGrd= 4 IRadAn=           5 IRanWt=          -1 IRanGd=           0 AccXCQ= 0.00D+00.
 Generated NRdTot=       0 NPtTot=           0 NUsed=           0 NTot=          32
 NSgBfM=  1354  1354  1354  1354  1354 MxSgAt=    80 MxSgA2=    80.
 Leave Link  302 at Thu Mar 28 10:27:52 2024, MaxMem=  1342177280 cpu:             103.8 elap:               2.8
 (Enter /packages/apps/gaussian/g16/g16/l303.exe)
 DipDrv:  MaxL=1.
 Leave Link  303 at Thu Mar 28 10:27:53 2024, MaxMem=  1342177280 cpu:              15.9 elap:               0.6
 (Enter /packages/apps/gaussian/g16/g16/l401.exe)
 ExpMin= 4.38D-02 ExpMax= 8.59D+03 ExpMxC= 1.30D+03 IAcc=3 IRadAn=         5 AccDes= 0.00D+00
 Harris functional with IExCor= 4639 and IRadAn=       5 diagonalized for initial guess.
 HarFok:  IExCor= 4639 AccDes= 0.00D+00 IRadAn=         5 IDoV= 1 UseB2=F ITyADJ=14
 ICtDFT=  3500011 ScaDFX=  1.000000  1.000000  1.000000  1.000000
 FoFCou: FMM=F IPFlag=           0 FMFlag=      100000 FMFlg1=        2001
         NFxFlg=           0 DoJE=T BraDBF=F KetDBF=T FulRan=T
         wScrn=  0.000000 ICntrl=       500 IOpCl=  0 I1Cent=   200000004 NGrid=           0
         NMat0=    1 NMatS0=      1 NMatT0=    0 NMatD0=    1 NMtDS0=    0 NMtDT0=    0
 Petite list used in FoFCou.
 Harris En= -1437.71926810129    
 JPrj=0 DoOrth=F DoCkMO=F.
 Leave Link  401 at Thu Mar 28 10:27:58 2024, MaxMem=  1342177280 cpu:             202.2 elap:               5.3
 (Enter /packages/apps/gaussian/g16/g16/l502.exe)
 Integral symmetry usage will be decided dynamically.
 Closed shell SCF:
 Using DIIS extrapolation, IDIIS=  1040.
 NGot=  1342177280 LenX=  1338188428 LenY=  1336227028
 Requested convergence on RMS density matrix=1.00D-08 within 128 cycles.
 Requested convergence on MAX density matrix=1.00D-06.
 Requested convergence on             energy=1.00D-06.
 No special actions if energy rises.
 Fock matrices will be formed incrementally for  20 cycles.

 Cycle   1  Pass 1  IDiag  1:
 FoFJK:  IHMeth= 1 ICntrl=       0 DoSepK=T KAlg= 0 I1Cent=           0 FoldK=F
 IRaf=         1 NMat=       1 IRICut=       1 DoRegI=T DoRafI=F ISym2E= 0 IDoP0=0 IntGTp=1.
 FoFCou: FMM=T IPFlag=           0 FMFlag=      100000 FMFlg1=        2001
         NFxFlg=           0 DoJE=T BraDBF=F KetDBF=F FulRan=T
         wScrn=  0.000000 ICntrl=       500 IOpCl=  0 I1Cent=           0 NGrid=           0
         NMat0=    1 NMatS0=      1 NMatT0=    0 NMatD0=    1 NMtDS0=    0 NMtDT0=    0
 Symmetry not used in FoFCou.
 FMM levels:  10  Number of levels for PrismC:   9
 E= -1504.51649615961    
 DIIS: error= 4.41D-02 at cycle   1 NSaved=   1.
 NSaved= 1 IEnMin= 1 EnMin= -1504.51649615961     IErMin= 1 ErrMin= 4.41D-02
 ErrMax= 4.41D-02  0.00D+00 EMaxC= 1.00D-01 BMatC= 3.30D+00 BMatP= 3.30D+00
 IDIUse=3 WtCom= 5.59D-01 WtEn= 4.41D-01
 Coeff-Com:  0.100D+01
 Coeff-En:   0.100D+01
 Coeff:      0.100D+01
 Gap=     0.282 Goal=   None    Shift=    0.000
 GapD=    0.282 DampG=1.000 DampE=0.500 DampFc=0.5000 IDamp=-1.
 Damping current iteration by 5.00D-01
 RMSDP=4.18D-03 MaxDP=6.29D-01              OVMax= 1.13D-01

 Cycle   2  Pass 1  IDiag  1:
 RMSU=  1.32D-03    CP:  8.87D-01
 E= -1504.77611194406     Delta-E=       -0.259615784457 Rises=F Damp=T
 DIIS: error= 2.04D-02 at cycle   2 NSaved=   2.
 NSaved= 2 IEnMin= 2 EnMin= -1504.77611194406     IErMin= 2 ErrMin= 2.04D-02
 ErrMax= 2.04D-02  0.00D+00 EMaxC= 1.00D-01 BMatC= 6.83D-01 BMatP= 3.30D+00
 IDIUse=3 WtCom= 7.96D-01 WtEn= 2.04D-01
 Coeff-Com: -0.572D+00 0.157D+01
 Coeff-En:   0.000D+00 0.100D+01
 Coeff:     -0.455D+00 0.146D+01
 Gap=     0.265 Goal=   None    Shift=    0.000
 RMSDP=2.76D-03 MaxDP=4.96D-01 DE=-2.60D-01 OVMax= 1.18D-01

 Cycle   3  Pass 1  IDiag  1:
 RMSU=  1.19D-03    CP:  7.22D-01  1.63D+00
 E= -1504.92466421566     Delta-E=       -0.148552271595 Rises=F Damp=F
 DIIS: error= 1.22D-02 at cycle   3 NSaved=   3.
 NSaved= 3 IEnMin= 3 EnMin= -1504.92466421566     IErMin= 3 ErrMin= 1.22D-02
 ErrMax= 1.22D-02  0.00D+00 EMaxC= 1.00D-01 BMatC= 1.81D-01 BMatP= 6.83D-01
 IDIUse=3 WtCom= 8.78D-01 WtEn= 1.22D-01
 Coeff-Com: -0.352D+00 0.754D+00 0.598D+00
 Coeff-En:   0.000D+00 0.000D+00 0.100D+01
 Coeff:     -0.309D+00 0.662D+00 0.647D+00
 Gap=     0.264 Goal=   None    Shift=    0.000
 RMSDP=6.57D-04 MaxDP=1.09D-01 DE=-1.49D-01 OVMax= 4.85D-02

 Cycle   4  Pass 1  IDiag  1:
 RMSU=  3.70D-04    CP:  7.43D-01  1.86D+00  7.06D-01
 E= -1505.06378517442     Delta-E=       -0.139120958757 Rises=F Damp=F
 DIIS: error= 2.10D-03 at cycle   4 NSaved=   4.
 NSaved= 4 IEnMin= 4 EnMin= -1505.06378517442     IErMin= 4 ErrMin= 2.10D-03
 ErrMax= 2.10D-03  0.00D+00 EMaxC= 1.00D-01 BMatC= 6.69D-03 BMatP= 1.81D-01
 IDIUse=3 WtCom= 9.79D-01 WtEn= 2.10D-02
 Coeff-Com: -0.971D-01 0.208D+00 0.272D+00 0.617D+00
 Coeff-En:   0.000D+00 0.000D+00 0.000D+00 0.100D+01
 Coeff:     -0.951D-01 0.204D+00 0.266D+00 0.625D+00
 Gap=     0.257 Goal=   None    Shift=    0.000
 RMSDP=1.94D-04 MaxDP=2.18D-02 DE=-1.39D-01 OVMax= 9.15D-03

 Cycle   5  Pass 1  IDiag  1:
 RMSU=  1.50D-04    CP:  7.43D-01  1.81D+00  7.86D-01  8.54D-01
 E= -1505.06901967370     Delta-E=       -0.005234499287 Rises=F Damp=F
 DIIS: error= 1.45D-04 at cycle   5 NSaved=   5.
 NSaved= 5 IEnMin= 5 EnMin= -1505.06901967370     IErMin= 5 ErrMin= 1.45D-04
 ErrMax= 1.45D-04  0.00D+00 EMaxC= 1.00D-01 BMatC= 1.38D-04 BMatP= 6.69D-03
 IDIUse=3 WtCom= 9.99D-01 WtEn= 1.45D-03
 Coeff-Com:  0.155D-01-0.332D-01 0.107D-01 0.213D+00 0.794D+00
 Coeff-En:   0.000D+00 0.000D+00 0.000D+00 0.000D+00 0.100D+01
 Coeff:      0.155D-01-0.331D-01 0.107D-01 0.212D+00 0.795D+00
 Gap=     0.256 Goal=   None    Shift=    0.000
 RMSDP=5.50D-05 MaxDP=9.34D-03 DE=-5.23D-03 OVMax= 3.07D-03

 Cycle   6  Pass 1  IDiag  1:
 RMSU=  2.79D-05    CP:  7.44D-01  1.82D+00  7.98D-01  9.66D-01  9.80D-01
 E= -1505.06912969186     Delta-E=       -0.000110018155 Rises=F Damp=F
 DIIS: error= 8.58D-05 at cycle   6 NSaved=   6.
 NSaved= 6 IEnMin= 6 EnMin= -1505.06912969186     IErMin= 6 ErrMin= 8.58D-05
 ErrMax= 8.58D-05  0.00D+00 EMaxC= 1.00D-01 BMatC= 3.59D-05 BMatP= 1.38D-04
 IDIUse=1 WtCom= 1.00D+00 WtEn= 0.00D+00
 Coeff-Com:  0.164D-01-0.352D-01-0.178D-01 0.544D-01 0.420D+00 0.563D+00
 Coeff:      0.164D-01-0.352D-01-0.178D-01 0.544D-01 0.420D+00 0.563D+00
 Gap=     0.256 Goal=   None    Shift=    0.000
 RMSDP=2.60D-05 MaxDP=6.39D-03 DE=-1.10D-04 OVMax= 1.09D-03

 Cycle   7  Pass 1  IDiag  1:
 RMSU=  1.14D-05    CP:  7.45D-01  1.82D+00  8.05D-01  9.88D-01  1.07D+00
                    CP:  9.61D-01
 E= -1505.06916147203     Delta-E=       -0.000031780171 Rises=F Damp=F
 DIIS: error= 2.01D-05 at cycle   7 NSaved=   7.
 NSaved= 7 IEnMin= 7 EnMin= -1505.06916147203     IErMin= 7 ErrMin= 2.01D-05
 ErrMax= 2.01D-05  0.00D+00 EMaxC= 1.00D-01 BMatC= 1.11D-06 BMatP= 3.59D-05
 IDIUse=1 WtCom= 1.00D+00 WtEn= 0.00D+00
 Coeff-Com:  0.329D-02-0.700D-02-0.572D-02-0.295D-02 0.477D-01 0.165D+00
 Coeff-Com:  0.800D+00
 Coeff:      0.329D-02-0.700D-02-0.572D-02-0.295D-02 0.477D-01 0.165D+00
 Coeff:      0.800D+00
 Gap=     0.256 Goal=   None    Shift=    0.000
 RMSDP=7.27D-06 MaxDP=1.58D-03 DE=-3.18D-05 OVMax= 3.44D-04

 Cycle   8  Pass 1  IDiag  1:
 RMSU=  3.37D-06    CP:  7.45D-01  1.82D+00  8.06D-01  9.99D-01  1.08D+00
                    CP:  1.04D+00  1.11D+00
 E= -1505.06916253416     Delta-E=       -0.000001062135 Rises=F Damp=F
 DIIS: error= 8.36D-06 at cycle   8 NSaved=   8.
 NSaved= 8 IEnMin= 8 EnMin= -1505.06916253416     IErMin= 8 ErrMin= 8.36D-06
 ErrMax= 8.36D-06  0.00D+00 EMaxC= 1.00D-01 BMatC= 2.33D-07 BMatP= 1.11D-06
 IDIUse=1 WtCom= 1.00D+00 WtEn= 0.00D+00
 Coeff-Com:  0.798D-04-0.136D-03-0.102D-02-0.620D-02-0.165D-01 0.217D-01
 Coeff-Com:  0.362D+00 0.640D+00
 Coeff:      0.798D-04-0.136D-03-0.102D-02-0.620D-02-0.165D-01 0.217D-01
 Coeff:      0.362D+00 0.640D+00
 Gap=     0.256 Goal=   None    Shift=    0.000
 RMSDP=2.07D-06 MaxDP=3.52D-04 DE=-1.06D-06 OVMax= 1.16D-04

 Cycle   9  Pass 1  IDiag  1:
 RMSU=  1.23D-06    CP:  7.45D-01  1.82D+00  8.07D-01  1.00D+00  1.09D+00
                    CP:  1.06D+00  1.16D+00  9.87D-01
 E= -1505.06916273970     Delta-E=       -0.000000205539 Rises=F Damp=F
 DIIS: error= 3.04D-06 at cycle   9 NSaved=   9.
 NSaved= 9 IEnMin= 9 EnMin= -1505.06916273970     IErMin= 9 ErrMin= 3.04D-06
 ErrMax= 3.04D-06  0.00D+00 EMaxC= 1.00D-01 BMatC= 2.88D-08 BMatP= 2.33D-07
 IDIUse=1 WtCom= 1.00D+00 WtEn= 0.00D+00
 Coeff-Com: -0.404D-03 0.873D-03 0.315D-03-0.251D-02-0.140D-01-0.124D-01
 Coeff-Com:  0.584D-01 0.283D+00 0.686D+00
 Coeff:     -0.404D-03 0.873D-03 0.315D-03-0.251D-02-0.140D-01-0.124D-01
 Coeff:      0.584D-01 0.283D+00 0.686D+00
 Gap=     0.256 Goal=   None    Shift=    0.000
 RMSDP=1.08D-06 MaxDP=2.38D-04 DE=-2.06D-07 OVMax= 4.98D-05

 Cycle  10  Pass 1  IDiag  1:
 RMSU=  3.69D-07    CP:  7.45D-01  1.82D+00  8.07D-01  1.00D+00  1.09D+00
                    CP:  1.07D+00  1.20D+00  1.09D+00  1.07D+00
 E= -1505.06916277469     Delta-E=       -0.000000034984 Rises=F Damp=F
 DIIS: error= 7.15D-07 at cycle  10 NSaved=  10.
 NSaved=10 IEnMin=10 EnMin= -1505.06916277469     IErMin=10 ErrMin= 7.15D-07
 ErrMax= 7.15D-07  0.00D+00 EMaxC= 1.00D-01 BMatC= 2.13D-09 BMatP= 2.88D-08
 IDIUse=1 WtCom= 1.00D+00 WtEn= 0.00D+00
 Coeff-Com: -0.115D-03 0.242D-03 0.205D-03 0.721D-04-0.167D-02-0.595D-02
 Coeff-Com: -0.311D-01-0.143D-01 0.175D+00 0.877D+00
 Coeff:     -0.115D-03 0.242D-03 0.205D-03 0.721D-04-0.167D-02-0.595D-02
 Coeff:     -0.311D-01-0.143D-01 0.175D+00 0.877D+00
 Gap=     0.256 Goal=   None    Shift=    0.000
 RMSDP=3.70D-07 MaxDP=4.03D-05 DE=-3.50D-08 OVMax= 2.71D-05

 Cycle  11  Pass 1  IDiag  1:
 RMSU=  1.33D-07    CP:  7.45D-01  1.82D+00  8.07D-01  1.00D+00  1.09D+00
                    CP:  1.07D+00  1.22D+00  1.14D+00  1.23D+00  1.25D+00
 E= -1505.06916277963     Delta-E=       -0.000000004948 Rises=F Damp=F
 DIIS: error= 4.52D-07 at cycle  11 NSaved=  11.
 NSaved=11 IEnMin=11 EnMin= -1505.06916277963     IErMin=11 ErrMin= 4.52D-07
 ErrMax= 4.52D-07  0.00D+00 EMaxC= 1.00D-01 BMatC= 4.08D-10 BMatP= 2.13D-09
 IDIUse=1 WtCom= 1.00D+00 WtEn= 0.00D+00
 Coeff-Com:  0.743D-05-0.175D-04 0.280D-04 0.296D-03 0.101D-02-0.707D-03
 Coeff-Com: -0.172D-01-0.403D-01-0.258D-01 0.304D+00 0.778D+00
 Coeff:      0.743D-05-0.175D-04 0.280D-04 0.296D-03 0.101D-02-0.707D-03
 Coeff:     -0.172D-01-0.403D-01-0.258D-01 0.304D+00 0.778D+00
 Gap=     0.256 Goal=   None    Shift=    0.000
 RMSDP=1.21D-07 MaxDP=1.07D-05 DE=-4.95D-09 OVMax= 1.20D-05

 Cycle  12  Pass 1  IDiag  1:
 RMSU=  5.72D-08    CP:  7.45D-01  1.82D+00  8.07D-01  1.00D+00  1.09D+00
                    CP:  1.07D+00  1.22D+00  1.15D+00  1.28D+00  1.37D+00
                    CP:  1.23D+00
 E= -1505.06916278058     Delta-E=       -0.000000000943 Rises=F Damp=F
 DIIS: error= 1.99D-07 at cycle  12 NSaved=  12.
 NSaved=12 IEnMin=12 EnMin= -1505.06916278058     IErMin=12 ErrMin= 1.99D-07
 ErrMax= 1.99D-07  0.00D+00 EMaxC= 1.00D-01 BMatC= 6.38D-11 BMatP= 4.08D-10
 IDIUse=1 WtCom= 1.00D+00 WtEn= 0.00D+00
 Coeff-Com:  0.175D-04-0.373D-04-0.195D-04 0.826D-04 0.562D-03 0.717D-03
 Coeff-Com:  0.509D-03-0.953D-02-0.389D-01-0.570D-01 0.249D+00 0.855D+00
 Coeff:      0.175D-04-0.373D-04-0.195D-04 0.826D-04 0.562D-03 0.717D-03
 Coeff:      0.509D-03-0.953D-02-0.389D-01-0.570D-01 0.249D+00 0.855D+00
 Gap=     0.256 Goal=   None    Shift=    0.000
 RMSDP=5.46D-08 MaxDP=7.29D-06 DE=-9.43D-10 OVMax= 6.44D-06

 Cycle  13  Pass 1  IDiag  1:
 RMSU=  2.49D-08    CP:  7.45D-01  1.82D+00  8.07D-01  1.00D+00  1.09D+00
                    CP:  1.07D+00  1.22D+00  1.15D+00  1.30D+00  1.42D+00
                    CP:  1.42D+00  1.21D+00
 E= -1505.06916278071     Delta-E=       -0.000000000136 Rises=F Damp=F
 DIIS: error= 8.40D-08 at cycle  13 NSaved=  13.
 NSaved=13 IEnMin=13 EnMin= -1505.06916278071     IErMin=13 ErrMin= 8.40D-08
 ErrMax= 8.40D-08  0.00D+00 EMaxC= 1.00D-01 BMatC= 9.07D-12 BMatP= 6.38D-11
 IDIUse=1 WtCom= 1.00D+00 WtEn= 0.00D+00
 Coeff-Com:  0.343D-05-0.707D-05-0.881D-05-0.210D-04 0.198D-05 0.272D-03
 Coeff-Com:  0.265D-02 0.358D-02-0.735D-02-0.618D-01-0.482D-01 0.239D+00
[...]
 00000114,-0.00000265,-0.00000136,0.00000271,0.00000110,-0.00000030,-0.
 00000124,-0.00000075,-0.00000007,0.00000371,-0.00000133,-0.00000184,-0
 .00000055,-0.00000098,-0.00000057,-0.00000727,-0.00000521,-0.00000433,
 0.00000089,0.00000273,0.00000375,0.00000542,0.00000483,0.00000750,0.00
 002333,-0.00000008,-0.00000582,0.00000853,-0.00000709,-0.00000452,-0.0
 0000630,-0.00001179,0.00000185,-0.00000661,0.00000587,-0.00000074,0.00
 001396,0.00000478,0.00000327,-0.00000340,0.00000677,0.00000206,-0.0000
 0376,-0.00000018,-0.00000246,-0.00000208,-0.00000709,0.00000621,0.0000
 0216,-0.00000626,-0.00001556,-0.00000465,-0.00000202,0.00000194,0.0000
 0160,-0.00000234,0.00001026,0.00000812,-0.00000209,-0.00000403,0.00000
 050,-0.00001561,-0.00002405,0.00001720,-0.00001199,-0.00000831,0.00000
 478,0.00000441,-0.00000142,0.00000306,0.00000489,-0.00002447,-0.000045
 84,-0.00001006,0.00001983,0.00003578,-0.00008065,0.00006056,0.00006724
 ,0.00000638,0.00006514,0.00009022,-0.00000080,-0.00000129,0.00000718,0
 .00028647,0.00016447,0.00015008,0.00005781,-0.00001587,-0.00001137,-0.
 00029499,-0.00002669,0.00004446,-0.00002922,-0.00000018,0.00003351,-0.
 00011812,-0.00025078,-0.00040823,-0.00011566,-0.00022060,0.00004614,0.
 00003568,-0.00001646,0.00000905,0.00003123,0.00003735,-0.00001690,-0.0
 0000100,-0.00000679,-0.00001004,0.00013893,-0.00012519,0.00001280,0.00
 001661,0.00001750,0.00000898,0.00009851,0.00008465,0.00000272,0.000006
 14,0.00001646,0.00000723,0.00007416,-0.00008536,-0.00002670,-0.0000278
 4,-0.00001571,-0.00003940,-0.00012332,0.00021379,0.00011028,-0.0003508
 3,0.00001951,0.00013912,0.00052309,-0.00002815,0.00032915,0.00004717,-
 0.00002304,0.00000044,-0.00003501,0.00005518,-0.00009153,0.00002824,-0
 .00002570,-0.00003119,-0.00002282,-0.00001929,0.00002763,0.00000529,0.
 00002225,0.00001408,0.00006626,0.00004596,-0.00003629,-0.00001216,-0.0
 0002178,0.00002476,-0.00000021,0.00002518,-0.00010138,0.00000187,0.000
 06350,0.00001225,-0.00003689,0.00001868,0.00000154,0.00000874,0.000004
 16,-0.00000029,-0.00000310,-0.00001201,0.00000527,0.00000021,0.0000107
 4,-0.00000444,-0.00002398,-0.00002295,-0.00001182,-0.00000326,-0.00000
 973,0.00001147,0.00003196,0.00002377,-0.00001342,-0.00000074,0.0000053
 3,-0.00000586,0.00002603,-0.00014023,-0.00017332,-0.00002706,0.0000185
 1,0.00001734,-0.00000356,0.00000025,0.00000023,0.00000101,0.00000014,-
 0.00000362,0.00000370,-0.00000500,0.00000361,-0.00000317,0.00000462,-0
 .00000321,-0.00001064,-0.00000346,-0.00000243,0.00130757,0.00010474,-0
 .00041797,-0.00058119,-0.00008508,0.00025674,-0.00064942,0.00027867,0.
 00027768,-0.00156406,-0.00001693,-0.00199137,-0.32502011,-0.19735450,0
 .19492098,0.31919322,0.00001383,-0.00000082,0.00000201,-0.00001695,-0.
 00000068,-0.00000272,-0.00000026,-0.00000532,0.00000417,0.00000595,0.0
 0000353,-0.00000616,-0.00000353,-0.00000074,0.00000070,0.00000442,0.00
 000695,-0.00000490,0.00000234,-0.00000051,-0.00000084,-0.00000938,0.00
 000206,0.00000112,-0.00000045,-0.00000426,0.00000111,0.00000158,0.0000
 0376,-0.00000476,0.00001474,-0.00000112,-0.00002210,-0.00001320,0.0000
 0090,0.00000147,0.00001217,0.00000527,0.00000517,0.00000497,-0.0000007
 0,0.00000346,-0.00000732,-0.00000187,-0.00000770,-0.00000111,-0.000002
 97,0.00000019,-0.00000202,-0.00000584,0.00000079,0.00003016,-0.0000004
 4,-0.00000137,0.00001096,-0.00000945,-0.00000543,0.00005211,0.00002358
 ,-0.00000545,0.00001020,-0.00000110,-0.00001131,0.00004492,0.00002023,
 -0.00000405,0.00000498,0.00000394,0.00000090,-0.00006506,0.00007896,-0
 .00005216,-0.00001915,0.00000847,-0.00001734,-0.00000733,-0.00002219,-
 0.00001020,0.00003434,0.00004183,0.00005716,-0.00000108,-0.00002367,-0
 .00002698,0.00007574,-0.00010086,-0.00012183,0.00000300,-0.00007083,-0
 .00005988,-0.00000478,0.00000484,-0.00000345,0.00038213,0.00005124,-0.
 00041730,0.00000511,0.00001816,0.00001715,0.00017961,0.00000354,0.0000
 1334,0.00002526,0.00000071,-0.00003421,-0.00061829,-0.00011083,0.00056
 290,0.00017056,0.00029408,-0.00007739,-0.00012111,0.00015739,0.0000698
 5,-0.00002890,-0.00006109,0.00002364,-0.00002196,0.00002359,0.00011741
 ,-0.00026826,0.00008035,0.00024070,-0.00004529,-0.00019984,-0.00002913
 ,-0.00009694,-0.00007143,-0.00001477,0.00000308,-0.00004034,-0.0000218
 4,-0.00004941,0.00007685,-0.00001599,0.00000909,0.00001694,0.00005510,
 0.00039433,-0.00034903,-0.00012181,0.00025116,0.00004108,-0.00011302,-
 0.00026659,0.00005685,-0.00070771,0.00000412,-0.00009693,-0.00003659,0
 .00005759,-0.00008813,0.00014657,-0.00004459,0.00004203,0.00004379,0.0
 0002203,0.00002454,-0.00003229,-0.00000077,-0.00003611,-0.00002020,-0.
 00008665,-0.00009239,0.00009302,0.00001559,0.00005639,-0.00006809,0.00
 004718,0.00009437,0.00020600,0.00003244,-0.00015064,-0.00003099,0.0000
 2168,-0.00004075,0.00001017,-0.00000714,-0.00001788,-0.00000442,0.0000
 0489,0.00001740,-0.00000950,-0.00000393,-0.00000165,-0.00000068,-0.000
 00024,0.00002690,0.00008257,0.00000592,0.00000155,-0.00002410,0.000003
 66,0.00003679,0.00000603,-0.00000200,-0.00000175,-0.00000935,-0.000196
 92,0.00010816,0.00020338,0.00006377,-0.00002136,-0.00012567,0.00000783
 ,-0.00000350,0.,-0.00000320,0.00000188,-0.00000205,0.00000220,0.000003
 05,-0.00000198,-0.00000395,-0.00000543,-0.00000063,0.00000664,0.000001
 35,-0.00000094,-0.00007695,0.00233481,0.00042787,0.00017212,-0.0013554
 8,0.00053032,0.00042735,-0.00082081,-0.00031966,0.00010968,-0.00041021
 ,-0.00092964,-0.18722882,-0.11947469,0.12550266,0.19270885,0.12229208,
 -0.00001017,0.00000352,-0.00000112,0.00001702,0.00000567,0.00000105,0.
 00000425,0.00000067,-0.00000231,-0.00000909,-0.00000242,0.00000709,0.0
 0000173,-0.00000094,-0.00000428,0.00000280,-0.00000115,0.00000447,-0.0
 0000569,-0.00000836,-0.00000341,-0.00000929,0.00000442,-0.00000817,-0.
 00001420,-0.00001494,-0.00000038,0.00000728,0.00000552,0.00000953,0.00
 003252,-0.00000020,-0.00000229,-0.00001076,-0.00001036,0.00001699,0.00
 000743,0.00000254,-0.00000362,-0.00001475,0.00000323,-0.00001280,0.000
 00093,-0.00000773,0.00001334,0.00000360,0.00000139,-0.00000055,0.00000
 653,0.00000078,-0.00000458,-0.00000827,-0.00003140,-0.00002096,-0.0000
 1977,-0.00000160,-0.00000322,-0.00001276,-0.00000615,-0.00000382,0.000
 00204,0.00000828,-0.00000080,-0.00000730,0.00003209,0.00003357,-0.0000
 1165,-0.00001035,0.00000046,0.00001358,-0.00004805,-0.00002560,0.00008
 258,0.00006497,-0.00001710,0.00000853,-0.00001055,-0.00000368,0.000026
 57,0.00005293,0.00001610,-0.00002562,-0.00002002,-0.00000728,0.0000464
 3,-0.00002061,-0.00005119,-0.00000828,-0.00002254,-0.00003710,-0.00001
 089,-0.00000359,0.00000759,-0.00012771,0.00001881,0.00022674,0.0000547
 8,-0.00001032,-0.00000128,0.00005706,0.00002248,0.00000915,0.00001000,
 0.00000461,-0.00000780,-0.00004423,-0.00002618,-0.00038492,0.00006201,
 0.00018657,-0.00002570,0.00011526,-0.00006801,-0.00006611,-0.00002097,
 -0.00001414,0.00002109,-0.00002115,0.00000701,0.00006098,0.00008021,0.
 00022932,-0.00004690,-0.00000459,-0.00001727,0.00000667,-0.00008865,-0
 .00001589,0.00000372,-0.00000811,-0.00000127,-0.00001854,0.00009210,-0
 .00013556,-0.00010872,-0.00001561,0.00001388,0.00003790,0.00034386,-0.
 00019935,0.00009734,0.00009308,-0.00007717,0.00001879,0.00011155,-0.00
 048967,-0.00063763,-0.00003480,0.00011502,0.00005569,0.00006681,-0.000
 08575,0.00012480,-0.00004184,0.00003245,0.00002624,0.00000254,0.000000
 91,-0.00000931,0.00000690,-0.00000598,-0.00000357,0.00000718,-0.000021
 33,0.00005061,0.00000103,-0.00002828,0.00000765,-0.00005694,0.00020611
 ,0.00002650,-0.00001895,-0.00001760,-0.00000746,0.00000786,0.00004375,
 0.00002875,-0.00000287,-0.00000392,-0.00000642,-0.00000427,-0.00000318
 ,-0.00000242,0.00000431,-0.00000747,0.00000259,-0.00000616,-0.00002560
 ,0.00001779,-0.00000807,-0.00001006,-0.00000533,0.00003256,0.00014214,
 -0.00004847,0.00000995,-0.00001196,-0.00000116,-0.00023235,0.00021248,
 0.00005999,-0.00000041,-0.00007261,-0.00003325,-0.00001084,-0.00000076
 ,0.00000176,0.00000082,0.00000060,-0.00001168,0.00001160,-0.00000053,0
 .00000488,-0.00001335,-0.00000247,-0.00000740,-0.00000816,0.00000041,-
 0.00000075,0.00010584,0.00215447,-0.00163986,-0.00008617,-0.00089344,0
 .00117846,-0.00002598,-0.00057567,0.00023514,-0.00303205,-0.00145025,-
 0.00131751,0.15087367,0.10476342,-0.14507934,-0.18643883,-0.12565922,0
 .16327448,-0.00003184,0.00001024,0.00000410,0.00004476,-0.00003052,0.0
 0000201,-0.00000532,0.00002211,-0.00000937,-0.00000577,-0.00000807,0.0
 0000847,0.00001024,-0.00000890,-0.00000294,-0.00001059,-0.00002358,0.0
 0001286,-0.00001667,0.00000388,0.00000217,0.00001291,-0.00001605,0.000
 03788,0.00001873,0.00003743,-0.00000443,0.00000466,-0.00003565,-0.0000
 0146,-0.00002954,-0.00006448,-0.00009005,-0.00001253,0.00004387,0.0000
 0295,-0.00001536,-0.00000708,-0.00000451,0.00000887,0.00000228,0.00001
 678,-0.00000393,0.00002890,-0.00000772,0.00000767,-0.00000006,-0.00001
 221,-0.00004808,0.00003390,0.00004020,-0.00012771,-0.00013329,-0.00012
 559,-0.00003662,-0.00001202,-0.00004158,-0.00021757,0.00003168,0.00001
 694,0.00000349,-0.00001087,0.00005625,-0.00015922,-0.00003030,-0.00000
 483,-0.00001323,-0.00001926,0.00000829,0.00011085,-0.00016330,-0.00014
 360,0.00063238,0.00034380,0.00008746,0.00002455,-0.00001719,0.00002874
 ,-0.00002699,0.00010615,0.00013318,0.00012629,-0.00004159,-0.00013508,
 0.00052245,-0.00020373,-0.00060551,-0.00010180,-0.00016276,-0.00030450
 ,0.00002449,-0.00001816,-0.00002998,-0.00091033,-0.00012882,0.00064315
 ,-0.00007230,-0.00001916,0.00002073,0.00079682,0.00036367,0.00001879,0
 .00010527,-0.00003113,-0.00012658,-0.00517160,0.00089171,0.00151127,-0
 .00027380,0.00068195,0.00033779,0.00128444,-0.00113160,-0.00015320,-0.
 00001184,-0.00006070,-0.00008685,0.00021677,-0.00054155,0.00012235,0.0
 0079987,0.00221865,-0.00002538,0.00003601,-0.00016135,-0.00002019,0.00
 009875,0.00020237,0.00015102,-0.00004967,0.00002655,-0.00002670,0.0004
 5418,-0.00059721,-0.00027770,-0.00007903,-0.00000380,-0.00002193,-0.00
 019070,0.00024710,0.00027227,-0.00050763,0.00047547,-0.00005425,0.0013
 5352,-0.00054786,0.00043068,-0.00003126,-0.00015670,-0.00012231,0.0000
 3619,0.00003548,-0.00007062,0.00003995,0.00000361,-0.00001151,-0.00005
 122,0.00004552,-0.00001927,-0.00003621,0.00001702,0.00001249,0.0000839
 4,-0.00002427,-0.00003544,-0.00002306,-0.00007344,0.00003380,-0.000177
 20,0.00058298,0.00013400,-0.00002380,-0.00002852,-0.00002396,-0.000009
 85,0.00010656,0.00000045,0.00001765,-0.00001592,-0.00001887,0.00000385
 ,-0.00003570,0.00002849,-0.00000938,-0.00000766,0.00000416,-0.00000657
 ,-0.00003634,0.00005869,-0.00001449,-0.00004561,0.00001735,0.00003860,
 0.00055760,-0.00016821,0.00000933,-0.00005619,-0.00002263,-0.00031671,
 -0.00017192,-0.00013672,-0.00015773,-0.00005653,-0.00008040,-0.0000034
 5,0.00001838,-0.00001017,0.00000737,-0.00002151,0.00002294,-0.00000797
 ,-0.00002152,-0.00002340,0.00003976,0.00000523,0.00001389,0.00005693,0
 .00002252,-0.00000771,-0.01074439,-0.00279477,-0.00829228,0.00044800,0
 .00336610,0.00088533,0.00135257,-0.00125243,0.00078748,-0.00725071,-0.
 00195173,0.01227591,-0.08282770,-0.00224919,-0.11813977,0.00719390,-0.
 00613673,0.03811674,0.09379535,0.00007951,-0.00001256,0.00000764,-0.00
 010256,-0.00000158,-0.00001063,-0.00000358,-0.00002189,0.00002047,0.00
 002930,0.00001741,-0.00003465,-0.00001521,0.00000029,0.00000581,0.0000
 1759,0.00004327,-0.00002190,0.00002302,0.00000607,-0.00000169,-0.00003
 716,0.00001023,-0.00001574,0.00000507,-0.00002616,0.00000308,-0.000010
 20,0.00002641,-0.00002671,0.00002626,0.00004560,0.00002279,-0.00001028
 ,-0.00003175,-0.00000774,0.00002032,0.00000897,0.00001342,0.00000350,-
 0.00000767,-0.00000012,-0.00000652,-0.00001512,-0.00000338,-0.00000327
 ,-0.00000251,0.00000409,0.00001839,0.00007639,0.00012829,-0.00007110,0
 .00003281,0.00004139,0.00022363,-0.00002037,-0.00006533,0.00001660,0.0
 0000940,-0.00004863,0.00003231,0.00000047,-0.00006467,0.00000714,-0.00
 017570,-0.00017948,0.00004458,0.00003622,-0.00000761,-0.00034917,0.000
 19673,0.00008527,-0.00004998,0.00002123,0.00023044,-0.00003307,-0.0000
 0118,-0.00000855,-0.00005313,0.00000851,-0.00001428,-0.00007137,-0.000
 06093,-0.00001310,-0.00017444,0.00000664,0.00025941,0.00006908,0.00004
 122,0.00000948,-0.00002223,0.00000812,0.00000833,-0.00001354,-0.000446
 37,-0.00002202,-0.00001257,0.00002093,-0.00005912,-0.00005392,-0.00013
 670,0.00004532,-0.00001435,0.00002603,0.00000419,0.00128101,0.00143568
 ,-0.00058961,0.00047572,0.00007112,-0.00022958,-0.00055607,0.00059545,
 -0.00021269,-0.00007164,0.00000601,0.00008865,-0.00015740,-0.00111010,
 -0.00029174,0.00140704,-0.00357978,0.00206219,-0.00003142,-0.00006718,
 -0.00004911,-0.00017791,-0.00019114,-0.00006167,0.00000941,-0.00004350
 ,-0.00001527,-0.00017097,0.00022728,0.00001612,0.00002538,0.00003495,0
 .00008434,0.00100851,-0.00035576,-0.00021740,0.00049078,-0.00040462,0.
 00006183,-0.00090180,-0.00169844,-0.00126705,-0.00022465,0.00037445,0.
 00020814,0.00007297,-0.00015548,0.00027939,-0.00009064,0.00006669,0.00
 006611,0.00004238,0.00001269,-0.00003456,0.00001463,-0.00004863,-0.000
 02164,0.00014890,-0.00004690,-0.00014276,-0.00004214,0.00006981,-0.000
 02713,0.00012613,0.00002734,0.00009733,0.00003488,-0.00004298,-0.00001
 356,-0.00025053,-0.00011487,-0.00016772,0.00001524,-0.00002576,-0.0000
 0049,0.00001395,-0.00000157,0.00001028,-0.00002511,0.00011595,-0.00001
 668,-0.00004219,0.00006970,0.00023477,0.00001296,-0.00000078,-0.000006
 21,0.00001835,0.00004616,0.00003468,-0.00002454,0.00001214,-0.00005993
 ,-0.00018864,0.00025077,0.00010977,0.00014569,0.00058880,-0.00003951,0
 .00003653,-0.00002148,0.00000275,-0.00001652,0.00001731,-0.00000830,0.
 00000592,0.00001371,0.00000524,-0.00002178,-0.00000607,-0.00001000,-0.
 00001682,-0.00001737,0.00000187,0.00418121,0.00624393,-0.00319346,-0.0
 0082822,-0.00459375,0.00203881,-0.00052037,-0.00059058,-0.00051917,-0.
 00516527,-0.01204953,-0.00142826,-0.01288680,-0.02814985,0.01357444,0.
 00450119,-0.00236273,0.02181141,0.00883398,0.04571646,-0.00004917,0.00
 003299,0.00001027,0.00008792,-0.00005020,-0.00003211,0.00000655,0.0000
 2463,-0.00001641,-0.00003458,-0.00001641,0.00002366,0.00001640,-0.0000
 1570,-0.00002347,0.00002508,-0.00001478,0.00003974,-0.00004825,-0.0000
 3631,-0.00000617,-0.00007564,0.00001587,0.00002949,-0.00002797,-0.0000
 2455,-0.00001032,0.00003913,-0.00003187,0.00003473,0.00006596,-0.00003
 343,-0.00002031,-0.00008852,0.00000990,0.00012285,-0.00000787,-0.00000
 686,-0.00005141,-0.00005323,0.00001542,-0.00002846,0.00000231,0.000008
 93,0.00006504,0.00003931,0.00000109,-0.00002169,-0.00007986,0.00003795
 ,0.00002481,-0.00011023,-0.00044469,-0.00034461,-0.00022494,-0.0001088
 4,-0.00008872,-0.00012746,0.00037095,0.00045000,0.00005812,0.00001291,
 0.00005176,-0.00010958,0.00004673,-0.00010270,-0.00003312,-0.00006758,
 0.00001206,-0.00000260,0.00004211,-0.00024611,0.00139280,0.00114242,-0
 .00049557,0.00005419,-0.00016523,-0.00000755,-0.00024002,-0.00005545,0
 .00013827,-0.00007043,-0.00019904,-0.00022353,0.00012982,0.00024399,0.
 00013914,0.00003408,-0.00025618,-0.00040333,-0.00003408,-0.00003851,-0
 .00002594,-0.00058291,0.00010942,-0.00099646,-0.00030882,-0.00020828,0
 .00000155,0.00094320,0.00066694,0.00014029,0.00010296,-0.00003110,-0.0
 0009381,0.00034403,-0.00018880,0.00314480,-0.00071908,0.00063487,0.000
 97701,0.00304932,-0.00345011,-0.00238019,-0.00021517,0.00028342,0.0000
 0440,0.00011977,-0.00204130,-0.00006022,-0.00031225,0.00545854,0.00297
 793,0.00008350,-0.00121139,-0.00023852,0.00005699,0.00037245,0.0001383
 7,-0.00008523,0.00015741,-0.00004224,0.00090421,-0.00134459,-0.0005856
 8,-0.00016592,-0.00003128,-0.00006619,-0.00026007,0.00065825,0.0002731
 8,-0.00079608,0.00043206,0.00035761,0.00168960,-0.00166506,0.00158863,
 -0.00018610,0.00018541,-0.00001057,0.00023251,0.00011429,-0.00028635,0
 .00008290,-0.00005915,-0.00005140,-0.00010857,0.00000479,0.00003401,-0
 .00006273,0.00013326,0.00002339,-0.00006587,-0.00045330,0.00002389,0.0
 0000267,0.00001705,-0.00005003,-0.00019521,0.00164767,0.00107872,0.000
 00486,-0.00041553,-0.00015927,-0.00001870,0.00017527,-0.00003274,0.000
 01044,-0.00008350,-0.00006391,0.00000997,-0.00001034,0.00002802,-0.000
 01156,0.00001063,0.00002826,-0.00004538,0.00006332,0.00048496,-0.00004
 111,-0.00007654,-0.00006535,0.00000641,0.00173208,-0.00053834,0.000057
 92,-0.00021750,-0.00011396,-0.00037743,-0.00049606,-0.00055954,-0.0000
 8658,0.00010214,-0.00062595,-0.00003927,0.00001153,-0.00001799,0.00001
 093,-0.00002080,-0.00003243,0.00002624,-0.00004006,-0.00003677,0.00000
 272,0.00000601,-0.00003281,0.00001136,0.00000713,-0.00003024,-0.034003
 48,-0.01725274,-0.00269571,0.00461270,0.01301136,-0.00017925,0.0131110
 5,-0.00440019,0.00005526,0.01947142,0.00475619,0.02050337,-0.07309418,
 0.03418745,-0.31580507,-0.00684143,0.00076709,-0.01600209,0.07314133,-
 0.03244866,0.31099597\\-0.00000076,-0.00000122,0.00000031,-0.00000275,
 0.00000029,-0.00000376,0.00000017,0.00000013,0.00000027,0.00000050,0.,
 0.00000045,0.00000082,0.00000057,0.00000073,-0.00000245,0.00000098,0.0
 0000158,-0.00000038,0.00000003,-0.00000062,0.00000189,-0.00000042,0.00
 000264,0.00000009,0.00000079,-0.00000030,0.00000131,-0.00000014,0.0000
 0052,0.00000341,0.00000100,0.00000335,-0.00000150,0.00000046,0.0000003
 8,-0.00000106,0.00000007,0.00000080,-0.00000018,0.00000039,0.00000123,
 -0.00000016,0.00000033,0.00000065,-0.00000016,0.00000064,0.00000158,0.
 00000041,-0.00000175,0.00000184,-0.00000229,0.00000261,0.00000333,-0.0
 0000312,0.00000002,-0.00000040,0.00000335,0.00000367,0.00000217,-0.000
 00005,0.00000073,0.00000019,0.00000160,0.00000163,-0.00000102,-0.00000
 032,0.00000027,0.,0.00000253,-0.00000073,-0.00000378,-0.00000089,0.000
 00194,-0.00000155,-0.00000015,-0.00000019,-0.00000062,0.00000240,-0.00
 000285,-0.00000043,0.00000284,-0.00000040,-0.00000025,0.00000155,0.000
 00098,0.00000156,0.00000194,-0.00000057,-0.00000084,0.00000035,0.00000
 019,0.00000109,-0.00000048,-0.00000126,0.00000338,0.00000018,0.0000002
 4,0.00000006,-0.00000331,-0.00000227,0.00000031,0.00000041,-0.00000018
 ,0.00000047,-0.00000114,-0.00000280,-0.00000309,-0.00000713,0.00000102
 ,-0.00000189,0.00000527,0.00000305,-0.00000561,0.00000028,-0.00000268,
 0.00000180,0.00001988,-0.00000651,-0.00000163,0.00000207,0.00000316,0.
 00000458,-0.00001734,0.00000209,-0.00000725,-0.00000326,0.00000572,0.0
 0000422,0.00000067,-0.00000049,-0.00000134,0.00000500,-0.00000372,-0.0
 0000209,0.00000005,0.00000073,0.00000233,0.00000003,0.00000166,-0.0000
 0410,0.00000036,0.00000155,-0.00000209,0.00000351,-0.00000454,0.000000
 59,-0.00000076,0.00000004,-0.00000020,-0.00000113,0.00000210,-0.000000
 74,-0.00000007,0.00000041,0.00000266,-0.00000149,-0.00000006,-0.000000
 97,0.00000008,-0.00000002,0.00000067,0.00000122,-0.00000410,0.00000022
 ,0.00000053,-0.00000132,-0.00000071,-0.00000165,0.00000176,-0.00000191
 ,-0.00000015,-0.00000045,0.00000018,-0.00000129,-0.00000011,-0.0000018
 1,-0.00000029,-0.00000051,-0.00000150,-0.00000090,0.00000010,-0.000000
 53,0.00000081,-0.00000080,-0.00000045,0.00000047,0.00000125,-0.0000011
 6,0.00000041,0.00000071,-0.00000110,-0.00000047,-0.00000042,-0.0000009
 0,0.00000095,-0.00000039,-0.00000019,0.00000252,-0.00000316,0.00000296
 ,-0.00000087,0.00000053,0.00000012,-0.00000016,0.00000215,0.00000302,0
 .00000046,0.00000149,0.00000088,-0.00000041,-0.00000012,0.00000034,-0.
 00000043,0.00000058,0.00000053,-0.00000034,0.00000063,0.00000145,-0.00
 000027,-0.00001384,-0.00000233,-0.00000147,0.00000212,-0.00000185,0.00
 000068,0.00000588,0.00000146,-0.00001063,-0.00000048,-0.00000018,-0.00
 000039,0.00000090,0.00000333,0.00000088,0.00000230,-0.00000896,0.00000
 020,-0.00000140,0.00000792\\\@


 ... IT IS NO ONE DREAME THAT
     CAN PLEASE THESE ALL ...

                -- BEN JONSON
 Job cpu time:      21 days 19 hours 36 minutes 12.6 seconds.
 Elapsed time:       0 days 13 hours 22 minutes 12.8 seconds.
 File lengths (MBytes):  RWF=  22697 Int=      0 D2E=      0 Chk=    135 Scr=      1
 Normal termination of Gaussian 16 at Fri Mar 29 00:03:52 2024.
