 Entering Gaussian System, Link 0=g16
 Input=2water-ofreq.gjf
 Output=2water-ofreq.log
 Initial command:
 /packages/apps/gaussian/g16/g16/l1.exe "/scratch/mdturne9/2-5-methyl/ofreq/Gau-3432208.inp" -scrdir="/scratch/mdturne9/2-5-methyl/ofreq/"
 Entering Link 1 = /packages/apps/gaussian/g16/g16/l1.exe PID=   3432209.
  
 Copyright (c) 1988,1990,1992,1993,1995,1998,2003,2009,2016,
            Gaussian, Inc.  All Rights Reserved.
  
 This is part of the Gaussian(R) 16 program.  It is based on
 the Gaussian(R) 09 system (copyright 2009, Gaussian, Inc.),
 the Gaussian(R) 03 system (copyright 2003, Gaussian, Inc.),
 the Gaussian(R) 98 system (copyright 1998, Gaussian, Inc.),
 the Gaussian(R) 94 system (copyright 1995, Gaussian, Inc.),
 the Gaussian 92(TM) system (copyright 1992, Gaussian, Inc.),
 the Gaussian 90(TM) system (copyright 1990, Gaussian, Inc.),
 the Gaussian 88(TM) system (copyright 1988, Gaussian, Inc.),
 the Gaussian 86(TM) system (copyright 1986, Carnegie Mellon
 University), and the Gaussian 82(TM) system (copyright 1983,
 Carnegie Mellon University). Gaussian is a federally registered
 trademark of Gaussian, Inc.
  
 This software contains proprietary and confidential information,
 including trade secrets, belonging to Gaussian, Inc.
  
 This software is provided under written license and may be
 used, copied, transmitted, or stored only in accord with that
 written license.
  
 The following legend is applicable only to US Government
 contracts under FAR:
  
                    RESTRICTED RIGHTS LEGEND
  
 Use, reproduction and disclosure by the US Government is
 subject to restrictions as set forth in subparagraphs (a)
 and (c) of the Commercial Computer Software - Restricted
 Rights clause in FAR 52.227-19.
  
 Gaussian, Inc.
 340 Quinnipiac St., Bldg. 40, Wallingford CT 06492
  
  
 ---------------------------------------------------------------
 Warning -- This program may not be used in any manner that
 competes with the business of Gaussian, Inc. or will provide
 assistance to any competitor of Gaussian, Inc.  The licensee
 of this program is prohibited from giving any competitor of
 Gaussian, Inc. access to this program.  By using this program,
 the user acknowledges that Gaussian, Inc. is engaged in the
 business of creating and licensing software in the field of
 computational chemistry and represents and warrants to the
 licensee that it is not a competitor of Gaussian, Inc. and that
 it will not use this program in any manner prohibited above.
 ---------------------------------------------------------------
  

 Cite this work as:
 Gaussian 16, Revision A.03,
 M. J. Frisch, G. W. Trucks, H. B. Schlegel, G. E. Scuseria, 
 M. A. Robb, J. R. Cheeseman, G. Scalmani, V. Barone, 
 G. A. Petersson, H. Nakatsuji, X. Li, M. Caricato, A. V. Marenich, 
 J. Bloino, B. G. Janesko, R. Gomperts, B. Mennucci, H. P. Hratchian, 
 J. V. Ortiz, A. F. Izmaylov, J. L. Sonnenberg, D. Williams-Young, 
 F. Ding, F. Lipparini, F. Egidi, J. Goings, B. Peng, A. Petrone, 
 T. Henderson, D. Ranasinghe, V. G. Zakrzewski, J. Gao, N. Rega, 
 G. Zheng, W. Liang, M. Hada, M. Ehara, K. Toyota, R. Fukuda, 
 J. Hasegawa, M. Ishida, T. Nakajima, Y. Honda, O. Kitao, H. Nakai, 
 T. Vreven, K. Throssell, J. A. Montgomery, Jr., J. E. Peralta, 
 F. Ogliaro, M. J. Bearpark, J. J. Heyd, E. N. Brothers, K. N. Kudin, 
 V. N. Staroverov, T. A. Keith, R. Kobayashi, J. Normand, 
 K. Raghavachari, A. P. Rendell, J. C. Burant, S. S. Iyengar, 
 J. Tomasi, M. Cossi, J. M. Millam, M. Klene, C. Adamo, R. Cammi, 
 J. W. Ochterski, R. L. Martin, K. Morokuma, O. Farkas, 
 J. B. Foresman, and D. J. Fox, Gaussian, Inc., Wallingford CT, 2016.
 
 ******************************************
 Gaussian 16:  ES64L-G16RevA.03 25-Dec-2016
                20-Apr-2024 
 ******************************************
 %chk=2water-ofreq.chk
 %nprocshared=20
 Will use up to   20 processors via shared memory.
 %mem=14GB
 ---------------------------------
 #p opt freq wb97xd/6-311+g(2d,2p)
 ---------------------------------
 1/18=20,19=15,26=3,38=1/1,3;
 2/9=110,12=2,17=6,18=5,40=1/2;
 3/5=4,6=6,7=212,11=2,25=1,30=1,71=1,74=-58/1,2,3;
 4//1;
 5/5=2,38=5/2;
 6/7=2,8=2,9=2,10=2,28=1/1;
 7//1,2,3,16;
 1/18=20,19=15,26=3/3(2);
 2/9=110/2;
 99//99;
 2/9=110/2;
 3/5=4,6=6,7=212,11=2,25=1,30=1,71=1,74=-58/1,2,3;
 4/5=5,16=3,69=1/1;
 5/5=2,38=5/2;
 7//1,2,3,16;
 1/18=20,19=15,26=3/3(-5);
 2/9=110/2;
 6/7=2,8=2,9=2,10=2,19=2,28=1/1;
 99/9=1/99;
 Leave Link    1 at Sat Apr 20 11:30:30 2024, MaxMem=  1879048192 cpu:               3.1 elap:               0.5
 (Enter /packages/apps/gaussian/g16/g16/l101.exe)
 --------
 Required
 --------
 Symbolic Z-matrix:
 Charge =  0 Multiplicity = 1
 C                    0    -3.39953  -3.90472  -2.16474  H 
 C                    0    -3.25901  -3.17725  -0.82645  H 
 H                    0    -2.71354  -4.74937  -2.22969  H 
 H                    0    -4.4165   -4.27909  -2.28787  H 
 H                    0    -3.19169  -3.23851  -3.00361  H 
 C                    0    -4.1883   -1.95416  -0.76198  H 
 H                    0    -3.56231  -3.8709   -0.03691  H 
 C                    0    -4.35178  -1.37861   0.64892  H 
 H                    0    -5.21646  -1.83798   1.1336   H 
 H                    0    -3.48691  -1.64319   1.26102  H 
 C                    0    -4.50701   0.14775   0.68265  H 
 C                    0    -4.89537   0.63294   2.08567  H 
 C                    0    -5.12801   2.13666   2.17012  H 
 H                    0    -5.44162   2.42953   3.17205  H 
 H                    0    -4.22003   2.68956   1.92707  H 
 H                    0    -5.90546   2.45098   1.47061  H 
 C                    0    -1.82671  -2.76851  -0.54176  H 
 C                    0    -1.08243  -2.04488  -1.47128  H 
 C                    0    -1.23294  -3.05521   0.68328  H 
 C                    0     0.21762  -1.65411  -1.19822  H 
 H                    0    -1.52544  -1.76665  -2.41879  H 
 C                    0     0.06169  -2.64834   0.96637  H 
 H                    0    -1.79735  -3.59523   1.43372  H 
 C                    0     0.81744  -1.96615   0.0189   H 
 H                    0     0.77165  -1.07673  -1.92812  H 
 H                    0     0.48828  -2.85476   1.93998  H 
 C                    0    -3.24496   0.81852   0.17841  H 
 C                    0    -3.25564   1.58063  -0.98358  H 
 C                    0    -2.03291   0.66074   0.85034  H 
 C                    0    -2.09244   2.17044  -1.45783  H 
 H                    0    -4.18228   1.7059   -1.53028  H 
 C                    0    -0.86795   1.24571   0.38736  H 
 H                    0    -1.98782   0.05448   1.74618  H 
 C                    0    -0.89187   2.01905  -0.77397  H 
 H                    0    -2.12127   2.74186  -2.3788   H 
 H                    0     0.07793   1.11404   0.91167  H 
 C                    0     0.38184   2.61652  -1.28719  H 
 H                    0     1.25815   2.01482  -1.00706  H 
 H                    0     0.35049   2.74481  -2.36951  H 
 C                    0     2.21818  -1.52753   0.32487  H 
 H                    0     2.48718  -0.64262  -0.24709  H 
 H                    0     2.34963  -1.30178   1.38271  H 
 C                    0     2.07074   4.35621  -1.21829  H 
 H                    0     2.33037   5.33896  -0.83143  H 
 H                    0     2.75226   3.57747  -0.86338  H 
 H                    0     2.05575   4.37587  -2.30613  H 
 C                    0     0.71321   3.98725   0.76293  H 
 H                    0    -0.30876   3.86669   1.11144  H 
 H                    0     1.3286    3.14084   1.11022  H 
 H                    0     1.10903   4.94286   1.1001   H 
 C                    0    -0.27708   5.00566  -1.21293  H 
 H                    0    -0.25008   5.04102  -2.29978  H 
 H                    0    -1.27024   4.72222  -0.87613  H 
 H                    0    -0.01095   5.97793  -0.80489  H 
 C                    0     4.5952   -2.06254   0.52926  H 
 H                    0     5.37943  -2.72602   0.17012  H 
 H                    0     4.7401   -1.0353    0.20247  H 
 H                    0     4.53855  -2.07028   1.61396  H 
 C                    0     2.99169  -3.86894   0.63115  H 
 H                    0     2.86546  -3.7076    1.69879  H 
 H                    0     2.08607  -4.28816   0.20366  H 
 H                    0     3.83191  -4.53628   0.45495  H 
 C                    0     3.40338  -2.72804  -1.48333  H 
 H                    0     2.44168  -3.04592  -1.87716  H 
 H                    0     3.71244  -1.76883  -1.90334  H 
 H                    0     4.15361  -3.48975  -1.68604  H 
 N                    0     0.70188   4.00322  -0.7337   H 
 N                    0     3.28956  -2.56435  -0.00824  H 
 H                    0    -5.16766  -2.2287   -1.16105  H 
 H                    0    -3.78721  -1.19115  -1.43388  H 
 H                    0    -4.11697   0.34      2.79543  H 
 H                    0    -5.80157   0.10415   2.39131  H 
 H                    0    -5.32026   0.42222   0.00216  H 
 C                    0     3.11058   1.30467   0.87384  H 
 O                    0     2.09207   1.48832   1.62126  H 
 O                    0     4.18143   0.76646   1.30101  H 
 O                    0     3.02697   1.62877  -0.39613  H 
 O                    0     3.35413  -0.78549   3.26004  L 
 H                    0     2.60569  -0.27231   3.56857  L 
 H                    0     3.75399  -0.14491   2.60241  L 
 O                    0     4.44482   0.22765  -2.03297  L 
 H                    0     5.3655    0.41528  -1.85635  L 
 H                    0     3.94745   0.81016  -1.37396  L 
 
 Add virtual bond connecting atoms H83        and O77        Dist= 2.97D+00.
 Add virtual bond connecting atoms H80        and O76        Dist= 3.11D+00.
 Add virtual bond connecting atoms O75        and H49        Dist= 3.57D+00.
 Add virtual bond connecting atoms O77        and H38        Dist= 3.61D+00.
 Add virtual bond connecting atoms O77        and H45        Dist= 3.82D+00.
 ITRead=  0  0  0  0  0  0  0  0  0  0  0  0  0  0  0  0  0  0  0  0
 ITRead=  0  0  0  0  0  0  0  0  0  0  0  0  0  0  0  0  0  0  0  0
 ITRead=  0  0  0  0  0  0  0  0  0  0  0  0  0  0  0  0  0  0  0  0
 ITRead=  0  0  0  0  0  0  0  0  0  0  0  0  0  0  0  0  0  0  0  0
 ITRead=  0  0  0
 MicOpt= -1 -1 -1 -1 -1 -1 -1 -1 -1 -1 -1 -1 -1 -1 -1 -1 -1 -1 -1 -1
 MicOpt= -1 -1 -1 -1 -1 -1 -1 -1 -1 -1 -1 -1 -1 -1 -1 -1 -1 -1 -1 -1
 MicOpt= -1 -1 -1 -1 -1 -1 -1 -1 -1 -1 -1 -1 -1 -1 -1 -1 -1 -1 -1 -1
 MicOpt= -1 -1 -1 -1 -1 -1 -1 -1 -1 -1 -1 -1 -1 -1 -1 -1 -1 -1 -1 -1
 MicOpt= -1 -1 -1
 NAtoms=     83 NQM=       83 NQMF=       0 NMMI=      0 NMMIF=      0
                NMic=       0 NMicF=      0.
                    Isotopes and Nuclear Properties:
 (Nuclear quadrupole moments (NQMom) in fm**2, nuclear magnetic moments (NMagM)
  in nuclear magnetons)

  Atom         1           2           3           4           5           6           7           8           9          10
 IAtWgt=          12          12           1           1           1          12           1          12           1           1
 AtmWgt=  12.0000000  12.0000000   1.0078250   1.0078250   1.0078250  12.0000000   1.0078250  12.0000000   1.0078250   1.0078250
 NucSpn=           0           0           1           1           1           0           1           0           1           1
 AtZEff=  -0.0000000  -0.0000000  -0.0000000  -0.0000000  -0.0000000  -0.0000000  -0.0000000  -0.0000000  -0.0000000  -0.0000000
 NQMom=    0.0000000   0.0000000   0.0000000   0.0000000   0.0000000   0.0000000   0.0000000   0.0000000   0.0000000   0.0000000
 NMagM=    0.0000000   0.0000000   2.7928460   2.7928460   2.7928460   0.0000000   2.7928460   0.0000000   2.7928460   2.7928460
 AtZNuc=   6.0000000   6.0000000   1.0000000   1.0000000   1.0000000   6.0000000   1.0000000   6.0000000   1.0000000   1.0000000

  Atom        11          12          13          14          15          16          17          18          19          20
 IAtWgt=          12          12          12           1           1           1          12          12          12          12
 AtmWgt=  12.0000000  12.0000000  12.0000000   1.0078250   1.0078250   1.0078250  12.0000000  12.0000000  12.0000000  12.0000000
 NucSpn=           0           0           0           1           1           1           0           0           0           0
 AtZEff=  -0.0000000  -0.0000000  -0.0000000  -0.0000000  -0.0000000  -0.0000000  -0.0000000  -0.0000000  -0.0000000  -0.0000000
 NQMom=    0.0000000   0.0000000   0.0000000   0.0000000   0.0000000   0.0000000   0.0000000   0.0000000   0.0000000   0.0000000
 NMagM=    0.0000000   0.0000000   0.0000000   2.7928460   2.7928460   2.7928460   0.0000000   0.0000000   0.0000000   0.0000000
 AtZNuc=   6.0000000   6.0000000   6.0000000   1.0000000   1.0000000   1.0000000   6.0000000   6.0000000   6.0000000   6.0000000

  Atom        21          22          23          24          25          26          27          28          29          30
 IAtWgt=           1          12           1          12           1           1          12          12          12          12
 AtmWgt=   1.0078250  12.0000000   1.0078250  12.0000000   1.0078250   1.0078250  12.0000000  12.0000000  12.0000000  12.0000000
 NucSpn=           1           0           1           0           1           1           0           0           0           0
 AtZEff=  -0.0000000  -0.0000000  -0.0000000  -0.0000000  -0.0000000  -0.0000000  -0.0000000  -0.0000000  -0.0000000  -0.0000000
 NQMom=    0.0000000   0.0000000   0.0000000   0.0000000   0.0000000   0.0000000   0.0000000   0.0000000   0.0000000   0.0000000
 NMagM=    2.7928460   0.0000000   2.7928460   0.0000000   2.7928460   2.7928460   0.0000000   0.0000000   0.0000000   0.0000000
 AtZNuc=   1.0000000   6.0000000   1.0000000   6.0000000   1.0000000   1.0000000   6.0000000   6.0000000   6.0000000   6.0000000

  Atom        31          32          33          34          35          36          37          38          39          40
 IAtWgt=           1          12           1          12           1           1          12           1           1          12
 AtmWgt=   1.0078250  12.0000000   1.0078250  12.0000000   1.0078250   1.0078250  12.0000000   1.0078250   1.0078250  12.0000000
 NucSpn=           1           0           1           0           1           1           0           1           1           0
 AtZEff=  -0.0000000  -0.0000000  -0.0000000  -0.0000000  -0.0000000  -0.0000000  -0.0000000  -0.0000000  -0.0000000  -0.0000000
 NQMom=    0.0000000   0.0000000   0.0000000   0.0000000   0.0000000   0.0000000   0.0000000   0.0000000   0.0000000   0.0000000
 NMagM=    2.7928460   0.0000000   2.7928460   0.0000000   2.7928460   2.7928460   0.0000000   2.7928460   2.7928460   0.0000000
 AtZNuc=   1.0000000   6.0000000   1.0000000   6.0000000   1.0000000   1.0000000   6.0000000   1.0000000   1.0000000   6.0000000

  Atom        41          42          43          44          45          46          47          48          49          50
 IAtWgt=           1           1          12           1           1           1          12           1           1           1
 AtmWgt=   1.0078250   1.0078250  12.0000000   1.0078250   1.0078250   1.0078250  12.0000000   1.0078250   1.0078250   1.0078250
 NucSpn=           1           1           0           1           1           1           0           1           1           1
 AtZEff=  -0.0000000  -0.0000000  -0.0000000  -0.0000000  -0.0000000  -0.0000000  -0.0000000  -0.0000000  -0.0000000  -0.0000000
 NQMom=    0.0000000   0.0000000   0.0000000   0.0000000   0.0000000   0.0000000   0.0000000   0.0000000   0.0000000   0.0000000
 NMagM=    2.7928460   2.7928460   0.0000000   2.7928460   2.7928460   2.7928460   0.0000000   2.7928460   2.7928460   2.7928460
 AtZNuc=   1.0000000   1.0000000   6.0000000   1.0000000   1.0000000   1.0000000   6.0000000   1.0000000   1.0000000   1.0000000

  Atom        51          52          53          54          55          56          57          58          59          60
 IAtWgt=          12           1           1           1          12           1           1           1          12           1
 AtmWgt=  12.0000000   1.0078250   1.0078250   1.0078250  12.0000000   1.0078250   1.0078250   1.0078250  12.0000000   1.0078250
 NucSpn=           0           1           1           1           0           1           1           1           0           1
 AtZEff=  -0.0000000  -0.0000000  -0.0000000  -0.0000000  -0.0000000  -0.0000000  -0.0000000  -0.0000000  -0.0000000  -0.0000000
 NQMom=    0.0000000   0.0000000   0.0000000   0.0000000   0.0000000   0.0000000   0.0000000   0.0000000   0.0000000   0.0000000
 NMagM=    0.0000000   2.7928460   2.7928460   2.7928460   0.0000000   2.7928460   2.7928460   2.7928460   0.0000000   2.7928460
 AtZNuc=   6.0000000   1.0000000   1.0000000   1.0000000   6.0000000   1.0000000   1.0000000   1.0000000   6.0000000   1.0000000

  Atom        61          62          63          64          65          66          67          68          69          70
 IAtWgt=           1           1          12           1           1           1          14          14           1           1
 AtmWgt=   1.0078250   1.0078250  12.0000000   1.0078250   1.0078250   1.0078250  14.0030740  14.0030740   1.0078250   1.0078250
 NucSpn=           1           1           0           1           1           1           2           2           1           1
 AtZEff=  -0.0000000  -0.0000000  -0.0000000  -0.0000000  -0.0000000  -0.0000000  -0.0000000  -0.0000000  -0.0000000  -0.0000000
 NQMom=    0.0000000   0.0000000   0.0000000   0.0000000   0.0000000   0.0000000   2.0440000   2.0440000   0.0000000   0.0000000
 NMagM=    2.7928460   2.7928460   0.0000000   2.7928460   2.7928460   2.7928460   0.4037610   0.4037610   2.7928460   2.7928460
 AtZNuc=   1.0000000   1.0000000   6.0000000   1.0000000   1.0000000   1.0000000   7.0000000   7.0000000   1.0000000   1.0000000

  Atom        71          72          73          74          75          76          77          78          79          80
 IAtWgt=           1           1           1          12          16          16          16          16           1           1
 AtmWgt=   1.0078250   1.0078250   1.0078250  12.0000000  15.9949146  15.9949146  15.9949146  15.9949146   1.0078250   1.0078250
 NucSpn=           1           1           1           0           0           0           0           0           1           1
 AtZEff=  -0.0000000  -0.0000000  -0.0000000  -0.0000000  -0.0000000  -0.0000000  -0.0000000  -0.0000000  -0.0000000  -0.0000000
 NQMom=    0.0000000   0.0000000   0.0000000   0.0000000   0.0000000   0.0000000   0.0000000   0.0000000   0.0000000   0.0000000
 NMagM=    2.7928460   2.7928460   2.7928460   0.0000000   0.0000000   0.0000000   0.0000000   0.0000000   2.7928460   2.7928460
 AtZNuc=   1.0000000   1.0000000   1.0000000   6.0000000   8.0000000   8.0000000   8.0000000   8.0000000   1.0000000   1.0000000

  Atom        81          82          83
 IAtWgt=          16           1           1
 AtmWgt=  15.9949146   1.0078250   1.0078250
 NucSpn=           0           1           1
 AtZEff=  -0.0000000  -0.0000000  -0.0000000
 NQMom=    0.0000000   0.0000000   0.0000000
 NMagM=    0.0000000   2.7928460   2.7928460
 AtZNuc=   8.0000000   1.0000000   1.0000000
 Leave Link  101 at Sat Apr 20 11:30:31 2024, MaxMem=  1879048192 cpu:              10.2 elap:               0.9
 (Enter /packages/apps/gaussian/g16/g16/l103.exe)

 GradGradGradGradGradGradGradGradGradGradGradGradGradGradGradGradGradGrad
 Berny optimization.
 Initialization pass.
                           ----------------------------
                           !    Initial Parameters    !
                           ! (Angstroms and Degrees)  !
 --------------------------                            --------------------------
 ! Name  Definition              Value          Derivative Info.                !
 --------------------------------------------------------------------------------
 ! R1    R(1,2)                  1.5297         estimate D2E/DX2                !
 ! R2    R(1,3)                  1.0901         estimate D2E/DX2                !
 ! R3    R(1,4)                  1.0907         estimate D2E/DX2                !
 ! R4    R(1,5)                  1.0912         estimate D2E/DX2                !
 ! R5    R(2,6)                  1.5374         estimate D2E/DX2                !
 ! R6    R(2,7)                  1.0939         estimate D2E/DX2                !
 ! R7    R(2,17)                 1.5164         estimate D2E/DX2                !
 ! R8    R(6,8)                  1.5325         estimate D2E/DX2                !
 ! R9    R(6,69)                 1.0926         estimate D2E/DX2                !
 ! R10   R(6,70)                 1.0929         estimate D2E/DX2                !
 ! R11   R(8,9)                  1.0925         estimate D2E/DX2                !
 ! R12   R(8,10)                 1.0921         estimate D2E/DX2                !
 ! R13   R(8,11)                 1.5346         estimate D2E/DX2                !
 ! R14   R(11,12)                1.5345         estimate D2E/DX2                !
 ! R15   R(11,27)                1.5156         estimate D2E/DX2                !
 ! R16   R(11,73)                1.0953         estimate D2E/DX2                !
 ! R17   R(12,13)                1.524          estimate D2E/DX2                !
 ! R18   R(12,71)                1.0934         estimate D2E/DX2                !
 ! R19   R(12,72)                1.0928         estimate D2E/DX2                !
 ! R20   R(13,14)                1.0899         estimate D2E/DX2                !
 ! R21   R(13,15)                1.0905         estimate D2E/DX2                !
 ! R22   R(13,16)                1.092          estimate D2E/DX2                !
 ! R23   R(17,18)                1.3934         estimate D2E/DX2                !
 ! R24   R(17,19)                1.3912         estimate D2E/DX2                !
 ! R25   R(18,20)                1.3847         estimate D2E/DX2                !
 ! R26   R(18,21)                1.0823         estimate D2E/DX2                !
 ! R27   R(19,22)                1.3863         estimate D2E/DX2                !
 ! R28   R(19,23)                1.0832         estimate D2E/DX2                !
 ! R29   R(20,24)                1.3923         estimate D2E/DX2                !
 ! R30   R(20,25)                1.0831         estimate D2E/DX2                !
 ! R31   R(22,24)                1.3908         estimate D2E/DX2                !
 ! R32   R(22,26)                1.0828         estimate D2E/DX2                !
 ! R33   R(24,40)                1.4994         estimate D2E/DX2                !
 ! R34   R(27,28)                1.3896         estimate D2E/DX2                !
 ! R35   R(27,29)                1.3948         estimate D2E/DX2                !
 ! R36   R(28,30)                1.3878         estimate D2E/DX2                !
 ! R37   R(28,31)                1.0832         estimate D2E/DX2                !
 ! R38   R(29,32)                1.3834         estimate D2E/DX2                !
 ! R39   R(29,33)                1.0826         estimate D2E/DX2                !
 ! R40   R(30,34)                1.3899         estimate D2E/DX2                !
 ! R41   R(30,35)                1.0842         estimate D2E/DX2                !
 ! R42   R(32,34)                1.3955         estimate D2E/DX2                !
 ! R43   R(32,36)                1.0895         estimate D2E/DX2                !
 ! R44   R(34,37)                1.4976         estimate D2E/DX2                !
 ! R45   R(37,38)                1.0993         estimate D2E/DX2                !
 ! R46   R(37,39)                1.0903         estimate D2E/DX2                !
 ! R47   R(37,67)                1.527          estimate D2E/DX2                !
 ! R48   R(38,77)                1.9108         estimate D2E/DX2                !
 ! R49   R(40,41)                1.0875         estimate D2E/DX2                !
 ! R50   R(40,42)                1.0896         estimate D2E/DX2                !
 ! R51   R(40,68)                1.5277         estimate D2E/DX2                !
 ! R52   R(43,44)                1.0876         estimate D2E/DX2                !
 ! R53   R(43,45)                1.094          estimate D2E/DX2                !
 ! R54   R(43,46)                1.0881         estimate D2E/DX2                !
 ! R55   R(43,67)                1.4944         estimate D2E/DX2                !
 ! R56   R(45,77)                2.0227         estimate D2E/DX2                !
 ! R57   R(47,48)                1.0865         estimate D2E/DX2                !
 ! R58   R(47,49)                1.1026         estimate D2E/DX2                !
 ! R59   R(47,50)                1.0879         estimate D2E/DX2                !
 ! R60   R(47,67)                1.4968         estimate D2E/DX2                !
 ! R61   R(49,75)                1.8907         estimate D2E/DX2                !
 ! R62   R(51,52)                1.0878         estimate D2E/DX2                !
 ! R63   R(51,53)                1.0864         estimate D2E/DX2                !
 ! R64   R(51,54)                1.0875         estimate D2E/DX2                !
 ! R65   R(51,67)                1.4808         estimate D2E/DX2                !
 ! R66   R(55,56)                1.0882         estimate D2E/DX2                !
 ! R67   R(55,57)                1.0877         estimate D2E/DX2                !
 ! R68   R(55,58)                1.0862         estimate D2E/DX2                !
 ! R69   R(55,68)                1.4985         estimate D2E/DX2                !
 ! R70   R(59,60)                1.0871         estimate D2E/DX2                !
 ! R71   R(59,61)                1.0857         estimate D2E/DX2                !
 ! R72   R(59,62)                1.0874         estimate D2E/DX2                !
 ! R73   R(59,68)                1.4831         estimate D2E/DX2                !
 ! R74   R(63,64)                1.0867         estimate D2E/DX2                !
 ! R75   R(63,65)                1.0918         estimate D2E/DX2                !
 ! R76   R(63,66)                1.0882         estimate D2E/DX2                !
 ! R77   R(63,68)                1.4885         estimate D2E/DX2                !
 ! R78   R(74,75)                1.2766         estimate D2E/DX2                !
 ! R79   R(74,76)                1.2723         estimate D2E/DX2                !
 ! R80   R(74,77)                1.3133         estimate D2E/DX2                !
 ! R81   R(76,80)                1.6453         estimate D2E/DX2                !
 ! R82   R(77,83)                1.5728         estimate D2E/DX2                !
 ! R83   R(78,79)                0.9585         estimate D2E/DX2                !
 ! R84   R(78,80)                1.0014         estimate D2E/DX2                !
 ! R85   R(81,82)                0.9561         estimate D2E/DX2                !
 ! R86   R(81,83)                1.0104         estimate D2E/DX2                !
 ! A1    A(2,1,3)              111.2737         estimate D2E/DX2                !
 ! A2    A(2,1,4)              110.3442         estimate D2E/DX2                !
 ! A3    A(2,1,5)              111.3902         estimate D2E/DX2                !
 ! A4    A(3,1,4)              108.3062         estimate D2E/DX2                !
 ! A5    A(3,1,5)              107.9031         estimate D2E/DX2                !
 ! A6    A(4,1,5)              107.4796         estimate D2E/DX2                !
 ! A7    A(1,2,6)              111.0695         estimate D2E/DX2                !
 ! A8    A(1,2,7)              107.7242         estimate D2E/DX2                !
 ! A9    A(1,2,17)             112.2836         estimate D2E/DX2                !
 ! A10   A(6,2,7)              107.8554         estimate D2E/DX2                !
 ! A11   A(6,2,17)             110.4019         estimate D2E/DX2                !
 ! A12   A(7,2,17)             107.2958         estimate D2E/DX2                !
 ! A13   A(2,6,8)              113.6943         estimate D2E/DX2                !
 ! A14   A(2,6,69)             109.0612         estimate D2E/DX2                !
 ! A15   A(2,6,70)             107.9259         estimate D2E/DX2                !
 ! A16   A(8,6,69)             109.5731         estimate D2E/DX2                !
 ! A17   A(8,6,70)             110.0563         estimate D2E/DX2                !
 ! A18   A(69,6,70)            106.2505         estimate D2E/DX2                !
 ! A19   A(6,8,9)              109.5696         estimate D2E/DX2                !
 ! A20   A(6,8,10)             109.9099         estimate D2E/DX2                !
 ! A21   A(6,8,11)             113.8637         estimate D2E/DX2                !
 ! A22   A(9,8,10)             106.0376         estimate D2E/DX2                !
 ! A23   A(9,8,11)             109.1715         estimate D2E/DX2                !
 ! A24   A(10,8,11)            107.9837         estimate D2E/DX2                !
 ! A25   A(8,11,12)            111.1116         estimate D2E/DX2                !
 ! A26   A(8,11,27)            110.4058         estimate D2E/DX2                !
 ! A27   A(8,11,73)            108.1001         estimate D2E/DX2                !
 ! A28   A(12,11,27)           112.0249         estimate D2E/DX2                !
 ! A29   A(12,11,73)           107.511          estimate D2E/DX2                !
 ! A30   A(27,11,73)           107.4972         estimate D2E/DX2                !
 ! A31   A(11,12,13)           113.6592         estimate D2E/DX2                !
 ! A32   A(11,12,71)           109.1857         estimate D2E/DX2                !
 ! A33   A(11,12,72)           108.2156         estimate D2E/DX2                !
 ! A34   A(13,12,71)           109.6982         estimate D2E/DX2                !
 ! A35   A(13,12,72)           109.5952         estimate D2E/DX2                !
 ! A36   A(71,12,72)           106.2096         estimate D2E/DX2                !
 ! A37   A(12,13,14)           111.1003         estimate D2E/DX2                !
 ! A38   A(12,13,15)           111.1505         estimate D2E/DX2                !
 ! A39   A(12,13,16)           110.9274         estimate D2E/DX2                !
 ! A40   A(14,13,15)           107.9519         estimate D2E/DX2                !
 ! A41   A(14,13,16)           107.8577         estimate D2E/DX2                !
 ! A42   A(15,13,16)           107.7022         estimate D2E/DX2                !
 ! A43   A(2,17,18)            121.2812         estimate D2E/DX2                !
 ! A44   A(2,17,19)            120.8562         estimate D2E/DX2                !
 ! A45   A(18,17,19)           117.8044         estimate D2E/DX2                !
 ! A46   A(17,18,20)           121.0973         estimate D2E/DX2                !
 ! A47   A(17,18,21)           119.9247         estimate D2E/DX2                !
 ! A48   A(20,18,21)           118.9714         estimate D2E/DX2                !
 ! A49   A(17,19,22)           121.1926         estimate D2E/DX2                !
 ! A50   A(17,19,23)           119.3666         estimate D2E/DX2                !
 ! A51   A(22,19,23)           119.4361         estimate D2E/DX2                !
 ! A52   A(18,20,24)           120.9047         estimate D2E/DX2                !
 ! A53   A(18,20,25)           119.855          estimate D2E/DX2                !
 ! A54   A(24,20,25)           119.2232         estimate D2E/DX2                !
 ! A55   A(19,22,24)           120.8195         estimate D2E/DX2                !
 ! A56   A(19,22,26)           119.7081         estimate D2E/DX2                !
 ! A57   A(24,22,26)           119.4698         estimate D2E/DX2                !
 ! A58   A(20,24,22)           118.1224         estimate D2E/DX2                !
 ! A59   A(20,24,40)           121.0174         estimate D2E/DX2                !
 ! A60   A(22,24,40)           120.8065         estimate D2E/DX2                !
 ! A61   A(11,27,28)           120.9655         estimate D2E/DX2                !
 ! A62   A(11,27,29)           120.8822         estimate D2E/DX2                !
 ! A63   A(28,27,29)           118.1339         estimate D2E/DX2                !
 ! A64   A(27,28,30)           120.8237         estimate D2E/DX2                !
 ! A65   A(27,28,31)           119.4751         estimate D2E/DX2                !
 ! A66   A(30,28,31)           119.698          estimate D2E/DX2                !
 ! A67   A(27,29,32)           121.5159         estimate D2E/DX2                !
 ! A68   A(27,29,33)           119.8782         estimate D2E/DX2                !
 ! A69   A(32,29,33)           118.5972         estimate D2E/DX2                !
 ! A70   A(28,30,34)           120.6348         estimate D2E/DX2                !
 ! A71   A(28,30,35)           119.4714         estimate D2E/DX2                !
 ! A72   A(34,30,35)           119.8876         estimate D2E/DX2                !
 ! A73   A(29,32,34)           119.8962         estimate D2E/DX2                !
 ! A74   A(29,32,36)           121.2635         estimate D2E/DX2                !
 ! A75   A(34,32,36)           118.8402         estimate D2E/DX2                !
 ! A76   A(30,34,32)           118.9877         estimate D2E/DX2                !
 ! A77   A(30,34,37)           121.5051         estimate D2E/DX2                !
 ! A78   A(32,34,37)           119.4537         estimate D2E/DX2                !
 ! A79   A(34,37,38)           111.8572         estimate D2E/DX2                !
 ! A80   A(34,37,39)           111.2637         estimate D2E/DX2                !
 ! A81   A(34,37,67)           114.6038         estimate D2E/DX2                !
 ! A82   A(38,37,39)           109.8939         estimate D2E/DX2                !
 ! A83   A(38,37,67)           103.7468         estimate D2E/DX2                !
 ! A84   A(39,37,67)           105.0096         estimate D2E/DX2                !
 ! A85   A(37,38,77)           158.436          estimate D2E/DX2                !
 ! A86   A(24,40,41)           111.212          estimate D2E/DX2                !
 ! A87   A(24,40,42)           111.804          estimate D2E/DX2                !
 ! A88   A(24,40,68)           114.3395         estimate D2E/DX2                !
 ! A89   A(41,40,42)           108.1908         estimate D2E/DX2                !
 ! A90   A(41,40,68)           105.3141         estimate D2E/DX2                !
 ! A91   A(42,40,68)           105.5269         estimate D2E/DX2                !
 ! A92   A(44,43,45)           112.2777         estimate D2E/DX2                !
 ! A93   A(44,43,46)           110.0341         estimate D2E/DX2                !
 ! A94   A(44,43,67)           108.467          estimate D2E/DX2                !
 ! A95   A(45,43,46)           110.2286         estimate D2E/DX2                !
 ! A96   A(45,43,67)           107.2945         estimate D2E/DX2                !
 ! A97   A(46,43,67)           108.4115         estimate D2E/DX2                !
 ! A98   A(43,45,77)           147.7078         estimate D2E/DX2                !
 ! A99   A(48,47,49)           109.8024         estimate D2E/DX2                !
 ! A100  A(48,47,50)           109.8949         estimate D2E/DX2                !
 ! A101  A(48,47,67)           108.3491         estimate D2E/DX2                !
 ! A102  A(49,47,50)           111.9386         estimate D2E/DX2                !
 ! A103  A(49,47,67)           109.1089         estimate D2E/DX2                !
 ! A104  A(50,47,67)           107.6543         estimate D2E/DX2                !
 ! A105  A(52,51,53)           109.9347         estimate D2E/DX2                !
 ! A106  A(52,51,54)           109.8622         estimate D2E/DX2                !
 ! A107  A(52,51,67)           109.2051         estimate D2E/DX2                !
 ! A108  A(53,51,54)           109.9173         estimate D2E/DX2                !
 ! A109  A(53,51,67)           109.1126         estimate D2E/DX2                !
 ! A110  A(54,51,67)           108.7845         estimate D2E/DX2                !
 ! A111  A(56,55,57)           112.3741         estimate D2E/DX2                !
 ! A112  A(56,55,58)           111.2733         estimate D2E/DX2                !
 ! A113  A(56,55,68)           107.7807         estimate D2E/DX2                !
 ! A114  A(57,55,58)           108.2825         estimate D2E/DX2                !
 ! A115  A(57,55,68)           108.9405         estimate D2E/DX2                !
 ! A116  A(58,55,68)           108.0818         estimate D2E/DX2                !
 ! A117  A(60,59,61)           110.3135         estimate D2E/DX2                !
 ! A118  A(60,59,62)           109.8735         estimate D2E/DX2                !
 ! A119  A(60,59,68)           108.4315         estimate D2E/DX2                !
 ! A120  A(61,59,62)           110.1077         estimate D2E/DX2                !
 ! A121  A(61,59,68)           109.7219         estimate D2E/DX2                !
 ! A122  A(62,59,68)           108.3491         estimate D2E/DX2                !
 ! A123  A(64,63,65)           111.5967         estimate D2E/DX2                !
 ! A124  A(64,63,66)           109.7455         estimate D2E/DX2                !
 ! A125  A(64,63,68)           108.8828         estimate D2E/DX2                !
 ! A126  A(65,63,66)           110.3746         estimate D2E/DX2                !
 ! A127  A(65,63,68)           107.8339         estimate D2E/DX2                !
 ! A128  A(66,63,68)           108.3191         estimate D2E/DX2                !
 ! A129  A(37,67,43)           106.7949         estimate D2E/DX2                !
 ! A130  A(37,67,47)           110.7525         estimate D2E/DX2                !
 ! A131  A(37,67,51)           111.0319         estimate D2E/DX2                !
 ! A132  A(43,67,47)           108.6529         estimate D2E/DX2                !
 ! A133  A(43,67,51)           109.9201         estimate D2E/DX2                !
 ! A134  A(47,67,51)           109.6225         estimate D2E/DX2                !
 ! A135  A(40,68,55)           107.7927         estimate D2E/DX2                !
 ! A136  A(40,68,59)           111.2323         estimate D2E/DX2                !
 ! A137  A(40,68,63)           110.1421         estimate D2E/DX2                !
 ! A138  A(55,68,59)           108.3569         estimate D2E/DX2                !
 ! A139  A(55,68,63)           109.006          estimate D2E/DX2                !
 ! A140  A(59,68,63)           110.234          estimate D2E/DX2                !
 ! A141  A(75,74,76)           122.396          estimate D2E/DX2                !
 ! A142  A(75,74,77)           118.6751         estimate D2E/DX2                !
 ! A143  A(76,74,77)           118.8566         estimate D2E/DX2                !
 ! A144  A(49,75,74)           106.837          estimate D2E/DX2                !
 ! A145  A(74,76,80)           106.3334         estimate D2E/DX2                !
 ! A146  A(38,77,45)            66.7815         estimate D2E/DX2                !
 ! A147  A(38,77,74)           114.7063         estimate D2E/DX2                !
 ! A148  A(38,77,83)           116.6262         estimate D2E/DX2                !
 ! A149  A(45,77,74)           118.0194         estimate D2E/DX2                !
 ! A150  A(45,77,83)           115.9333         estimate D2E/DX2                !
 ! A151  A(74,77,83)           115.8168         estimate D2E/DX2                !
 ! A152  A(79,78,80)           100.4106         estimate D2E/DX2                !
 ! A153  A(82,81,83)           103.9102         estimate D2E/DX2                !
 ! A154  L(47,49,75,1,-1)      169.3128         estimate D2E/DX2                !
 ! A155  L(76,80,78,1,-1)      167.9132         estimate D2E/DX2                !
 ! A156  L(77,83,81,1,-1)      173.614          estimate D2E/DX2                !
 ! A157  L(47,49,75,1,-2)      182.9616         estimate D2E/DX2                !
 ! A158  L(76,80,78,1,-2)      178.6883         estimate D2E/DX2                !
 ! A159  L(77,83,81,1,-2)      178.9844         estimate D2E/DX2                !
 ! D1    D(3,1,2,6)            177.7468         estimate D2E/DX2                !
 ! D2    D(3,1,2,7)            -64.343          estimate D2E/DX2                !
 ! D3    D(3,1,2,17)            53.5799         estimate D2E/DX2                !
 ! D4    D(4,1,2,6)            -61.9978         estimate D2E/DX2                !
 ! D5    D(4,1,2,7)             55.9124         estimate D2E/DX2                !
 ! D6    D(4,1,2,17)           173.8353         estimate D2E/DX2                !
 ! D7    D(5,1,2,6)             57.2958         estimate D2E/DX2                !
 ! D8    D(5,1,2,7)            175.206          estimate D2E/DX2                !
 ! D9    D(5,1,2,17)           -66.8711         estimate D2E/DX2                !
 ! D10   D(1,2,6,8)            166.1881         estimate D2E/DX2                !
 ! D11   D(1,2,6,69)            43.5927         estimate D2E/DX2                !
 ! D12   D(1,2,6,70)           -71.4283         estimate D2E/DX2                !
 ! D13   D(7,2,6,8)             48.3576         estimate D2E/DX2                !
 ! D14   D(7,2,6,69)           -74.2379         estimate D2E/DX2                !
 ! D15   D(7,2,6,70)           170.7412         estimate D2E/DX2                !
 ! D16   D(17,2,6,8)           -68.583          estimate D2E/DX2                !
 ! D17   D(17,2,6,69)          168.8216         estimate D2E/DX2                !
 ! D18   D(17,2,6,70)           53.8006         estimate D2E/DX2                !
 ! D19   D(1,2,17,18)           52.2205         estimate D2E/DX2                !
 ! D20   D(1,2,17,19)         -130.614          estimate D2E/DX2                !
 ! D21   D(6,2,17,18)          -72.3162         estimate D2E/DX2                !
 ! D22   D(6,2,17,19)          104.8493         estimate D2E/DX2                !
 ! D23   D(7,2,17,18)          170.3971         estimate D2E/DX2                !
 ! D24   D(7,2,17,19)          -12.4374         estimate D2E/DX2                !
 ! D25   D(2,6,8,9)            -91.8525         estimate D2E/DX2                !
 ! D26   D(2,6,8,10)            24.2895         estimate D2E/DX2                !
 ! D27   D(2,6,8,11)           145.5746         estimate D2E/DX2                !
 ! D28   D(69,6,8,9)            30.4607         estimate D2E/DX2                !
 ! D29   D(69,6,8,10)          146.6027         estimate D2E/DX2                !
 ! D30   D(69,6,8,11)          -92.1121         estimate D2E/DX2                !
 ! D31   D(70,6,8,9)           146.9468         estimate D2E/DX2                !
 ! D32   D(70,6,8,10)          -96.9112         estimate D2E/DX2                !
 ! D33   D(70,6,8,11)           24.3739         estimate D2E/DX2                !
 ! D34   D(6,8,11,12)          170.6448         estimate D2E/DX2                !
 ! D35   D(6,8,11,27)          -64.4276         estimate D2E/DX2                !
 ! D36   D(6,8,11,73)           52.9004         estimate D2E/DX2                !
 ! D37   D(9,8,11,12)           47.8538         estimate D2E/DX2                !
 ! D38   D(9,8,11,27)          172.7814         estimate D2E/DX2                !
 ! D39   D(9,8,11,73)          -69.8906         estimate D2E/DX2                !
 ! D40   D(10,8,11,12)         -67.0043         estimate D2E/DX2                !
 ! D41   D(10,8,11,27)          57.9233         estimate D2E/DX2                !
 ! D42   D(10,8,11,73)         175.2513         estimate D2E/DX2                !
 ! D43   D(8,11,12,13)        -177.329          estimate D2E/DX2                !
 ! D44   D(8,11,12,71)          59.8454         estimate D2E/DX2                !
 ! D45   D(8,11,12,72)         -55.3476         estimate D2E/DX2                !
 ! D46   D(27,11,12,13)         58.659          estimate D2E/DX2                !
 ! D47   D(27,11,12,71)        -64.1667         estimate D2E/DX2                !
 ! D48   D(27,11,12,72)       -179.3597         estimate D2E/DX2                !
 ! D49   D(73,11,12,13)        -59.2277         estimate D2E/DX2                !
 ! D50   D(73,11,12,71)        177.9467         estimate D2E/DX2                !
 ! D51   D(73,11,12,72)         62.7537         estimate D2E/DX2                !
 ! D52   D(8,11,27,28)         115.6964         estimate D2E/DX2                !
 ! D53   D(8,11,27,29)         -62.7112         estimate D2E/DX2                !
 ! D54   D(12,11,27,28)       -119.8981         estimate D2E/DX2                !
 ! D55   D(12,11,27,29)         61.6944         estimate D2E/DX2                !
 ! D56   D(73,11,27,28)         -2.0032         estimate D2E/DX2                !
 ! D57   D(73,11,27,29)        179.5892         estimate D2E/DX2                !
 ! D58   D(11,12,13,14)        177.6118         estimate D2E/DX2                !
 ! D59   D(11,12,13,15)        -62.1552         estimate D2E/DX2                !
 ! D60   D(11,12,13,16)         57.6469         estimate D2E/DX2                !
 ! D61   D(71,12,13,14)        -59.8446         estimate D2E/DX2                !
 ! D62   D(71,12,13,15)         60.3884         estimate D2E/DX2                !
 ! D63   D(71,12,13,16)       -179.8094         estimate D2E/DX2                !
 ! D64   D(72,12,13,14)         56.3985         estimate D2E/DX2                !
 ! D65   D(72,12,13,15)        176.6315         estimate D2E/DX2                !
 ! D66   D(72,12,13,16)        -63.5663         estimate D2E/DX2                !
 ! D67   D(2,17,18,20)         178.8963         estimate D2E/DX2                !
 ! D68   D(2,17,18,21)          -0.1638         estimate D2E/DX2                !
 ! D69   D(19,17,18,20)          1.6472         estimate D2E/DX2                !
 ! D70   D(19,17,18,21)       -177.4129         estimate D2E/DX2                !
 ! D71   D(2,17,19,22)        -177.9676         estimate D2E/DX2                !
 ! D72   D(2,17,19,23)           1.2487         estimate D2E/DX2                !
 ! D73   D(18,17,19,22)         -0.7062         estimate D2E/DX2                !
 ! D74   D(18,17,19,23)        178.5101         estimate D2E/DX2                !
 ! D75   D(17,18,20,24)         -0.4103         estimate D2E/DX2                !
 ! D76   D(17,18,20,25)       -178.8931         estimate D2E/DX2                !
 ! D77   D(21,18,20,24)        178.6586         estimate D2E/DX2                !
 ! D78   D(21,18,20,25)          0.1758         estimate D2E/DX2                !
 ! D79   D(17,19,22,24)         -1.4932         estimate D2E/DX2                !
 ! D80   D(17,19,22,26)        177.9075         estimate D2E/DX2                !
 ! D81   D(23,19,22,24)        179.2911         estimate D2E/DX2                !
 ! D82   D(23,19,22,26)         -1.3082         estimate D2E/DX2                !
 ! D83   D(18,20,24,22)         -1.7672         estimate D2E/DX2                !
 ! D84   D(18,20,24,40)       -179.1245         estimate D2E/DX2                !
 ! D85   D(25,20,24,22)        176.725          estimate D2E/DX2                !
 ! D86   D(25,20,24,40)         -0.6323         estimate D2E/DX2                !
 ! D87   D(19,22,24,20)          2.7038         estimate D2E/DX2                !
 ! D88   D(19,22,24,40)       -179.9332         estimate D2E/DX2                !
 ! D89   D(26,22,24,20)       -176.6984         estimate D2E/DX2                !
 ! D90   D(26,22,24,40)          0.6647         estimate D2E/DX2                !
 ! D91   D(20,24,40,41)         25.3479         estimate D2E/DX2                !
 ! D92   D(20,24,40,42)        146.4083         estimate D2E/DX2                !
 ! D93   D(20,24,40,68)        -93.7631         estimate D2E/DX2                !
 ! D94   D(22,24,40,41)       -151.9384         estimate D2E/DX2                !
 ! D95   D(22,24,40,42)        -30.878          estimate D2E/DX2                !
 ! D96   D(22,24,40,68)         88.9506         estimate D2E/DX2                !
 ! D97   D(11,27,28,30)       -178.6406         estimate D2E/DX2                !
 ! D98   D(11,27,28,31)          0.6996         estimate D2E/DX2                !
 ! D99   D(29,27,28,30)         -0.1903         estimate D2E/DX2                !
 ! D100  D(29,27,28,31)        179.1498         estimate D2E/DX2                !
 ! D101  D(11,27,29,32)        178.7304         estimate D2E/DX2                !
 ! D102  D(11,27,29,33)         -0.1795         estimate D2E/DX2                !
 ! D103  D(28,27,29,32)          0.2788         estimate D2E/DX2                !
 ! D104  D(28,27,29,33)       -178.6311         estimate D2E/DX2                !
 ! D105  D(27,28,30,34)         -0.471          estimate D2E/DX2                !
 ! D106  D(27,28,30,35)        178.6204         estimate D2E/DX2                !
 ! D107  D(31,28,30,34)       -179.8097         estimate D2E/DX2                !
 ! D108  D(31,28,30,35)         -0.7183         estimate D2E/DX2                !
 ! D109  D(27,29,32,34)          0.2911         estimate D2E/DX2                !
 ! D110  D(27,29,32,36)       -179.5684         estimate D2E/DX2                !
 ! D111  D(33,29,32,34)        179.2145         estimate D2E/DX2                !
 ! D112  D(33,29,32,36)         -0.6449         estimate D2E/DX2                !
 ! D113  D(28,30,34,32)          1.0347         estimate D2E/DX2                !
 ! D114  D(28,30,34,37)        178.3602         estimate D2E/DX2                !
 ! D115  D(35,30,34,32)       -178.053          estimate D2E/DX2                !
 ! D116  D(35,30,34,37)         -0.7274         estimate D2E/DX2                !
 ! D117  D(29,32,34,30)         -0.9416         estimate D2E/DX2                !
 ! D118  D(29,32,34,37)       -178.323          estimate D2E/DX2                !
 ! D119  D(36,32,34,30)        178.9212         estimate D2E/DX2                !
 ! D120  D(36,32,34,37)          1.5399         estimate D2E/DX2                !
 ! D121  D(30,34,37,38)       -149.0995         estimate D2E/DX2                !
 ! D122  D(30,34,37,39)        -25.7654         estimate D2E/DX2                !
 ! D123  D(30,34,37,67)         93.1717         estimate D2E/DX2                !
 ! D124  D(32,34,37,38)         28.2139         estimate D2E/DX2                !
 ! D125  D(32,34,37,39)        151.5479         estimate D2E/DX2                !
 ! D126  D(32,34,37,67)        -89.515          estimate D2E/DX2                !
 ! D127  D(34,37,38,77)       -137.3579         estimate D2E/DX2                !
 ! D128  D(39,37,38,77)         98.5374         estimate D2E/DX2                !
 ! D129  D(67,37,38,77)        -13.3057         estimate D2E/DX2                !
 ! D130  D(34,37,67,43)        173.1112         estimate D2E/DX2                !
 ! D131  D(34,37,67,47)         54.9711         estimate D2E/DX2                !
 ! D132  D(34,37,67,51)        -67.0646         estimate D2E/DX2                !
 ! D133  D(38,37,67,43)         50.8642         estimate D2E/DX2                !
 ! D134  D(38,37,67,47)        -67.2758         estimate D2E/DX2                !
 ! D135  D(38,37,67,51)        170.6884         estimate D2E/DX2                !
 ! D136  D(39,37,67,43)        -64.4945         estimate D2E/DX2                !
 ! D137  D(39,37,67,47)        177.3655         estimate D2E/DX2                !
 ! D138  D(39,37,67,51)         55.3298         estimate D2E/DX2                !
 ! D139  D(37,38,77,45)        -13.9361         estimate D2E/DX2                !
 ! D140  D(37,38,77,74)         97.4906         estimate D2E/DX2                !
 ! D141  D(37,38,77,83)       -122.4331         estimate D2E/DX2                !
 ! D142  D(24,40,68,55)       -172.0635         estimate D2E/DX2                !
 ! D143  D(24,40,68,59)        -53.4089         estimate D2E/DX2                !
 ! D144  D(24,40,68,63)         69.1193         estimate D2E/DX2                !
 ! D145  D(41,40,68,55)         65.5516         estimate D2E/DX2                !
 ! D146  D(41,40,68,59)       -175.7938         estimate D2E/DX2                !
 ! D147  D(41,40,68,63)        -53.2656         estimate D2E/DX2                !
 ! D148  D(42,40,68,55)        -48.7799         estimate D2E/DX2                !
 ! D149  D(42,40,68,59)         69.8747         estimate D2E/DX2                !
 ! D150  D(42,40,68,63)       -167.5971         estimate D2E/DX2                !
 ! D151  D(44,43,45,77)        151.7549         estimate D2E/DX2                !
 ! D152  D(46,43,45,77)        -85.1855         estimate D2E/DX2                !
 ! D153  D(67,43,45,77)         32.672          estimate D2E/DX2                !
 ! D154  D(44,43,67,37)       -179.521          estimate D2E/DX2                !
 ! D155  D(44,43,67,47)        -60.0145         estimate D2E/DX2                !
 ! D156  D(44,43,67,51)         59.9409         estimate D2E/DX2                !
 ! D157  D(45,43,67,37)        -58.0154         estimate D2E/DX2                !
 ! D158  D(45,43,67,47)         61.4911         estimate D2E/DX2                !
 ! D159  D(45,43,67,51)       -178.5535         estimate D2E/DX2                !
 ! D160  D(46,43,67,37)         61.0181         estimate D2E/DX2                !
 ! D161  D(46,43,67,47)       -179.4754         estimate D2E/DX2                !
 ! D162  D(46,43,67,51)        -59.52           estimate D2E/DX2                !
 ! D163  D(43,45,77,38)          0.4313         estimate D2E/DX2                !
 ! D164  D(43,45,77,74)       -106.2416         estimate D2E/DX2                !
 ! D165  D(43,45,77,83)        109.9223         estimate D2E/DX2                !
 ! D166  D(48,47,75,74)        156.6782         estimate D2E/DX2                !
 ! D167  D(50,47,75,74)        -80.5669         estimate D2E/DX2                !
 ! D168  D(67,47,75,74)         41.7111         estimate D2E/DX2                !
 ! D169  D(48,47,67,37)        -70.7115         estimate D2E/DX2                !
 ! D170  D(48,47,67,43)        172.2858         estimate D2E/DX2                !
 ! D171  D(48,47,67,51)         52.1455         estimate D2E/DX2                !
 ! D172  D(49,47,67,37)         48.8033         estimate D2E/DX2                !
 ! D173  D(49,47,67,43)        -68.1994         estimate D2E/DX2                !
 ! D174  D(49,47,67,51)        171.6602         estimate D2E/DX2                !
 ! D175  D(50,47,67,37)        170.4853         estimate D2E/DX2                !
 ! D176  D(50,47,67,43)         53.4827         estimate D2E/DX2                !
 ! D177  D(50,47,67,51)        -66.6577         estimate D2E/DX2                !
 ! D178  D(52,51,67,37)        -59.6408         estimate D2E/DX2                !
 ! D179  D(52,51,67,43)         58.3033         estimate D2E/DX2                !
 ! D180  D(52,51,67,47)        177.6678         estimate D2E/DX2                !
 ! D181  D(53,51,67,37)         60.5454         estimate D2E/DX2                !
 ! D182  D(53,51,67,43)        178.4895         estimate D2E/DX2                !
 ! D183  D(53,51,67,47)        -62.146          estimate D2E/DX2                !
 ! D184  D(54,51,67,37)       -179.5417         estimate D2E/DX2                !
 ! D185  D(54,51,67,43)        -61.5976         estimate D2E/DX2                !
 ! D186  D(54,51,67,47)         57.7669         estimate D2E/DX2                !
 ! D187  D(56,55,68,40)       -171.9939         estimate D2E/DX2                !
 ! D188  D(56,55,68,59)         67.527          estimate D2E/DX2                !
 ! D189  D(56,55,68,63)        -52.4533         estimate D2E/DX2                !
 ! D190  D(57,55,68,40)        -49.807          estimate D2E/DX2                !
 ! D191  D(57,55,68,59)       -170.2861         estimate D2E/DX2                !
 ! D192  D(57,55,68,63)         69.7336         estimate D2E/DX2                !
 ! D193  D(58,55,68,40)         67.6403         estimate D2E/DX2                !
 ! D194  D(58,55,68,59)        -52.8387         estimate D2E/DX2                !
 ! D195  D(58,55,68,63)       -172.8191         estimate D2E/DX2                !
 ! D196  D(60,59,68,40)        -54.7161         estimate D2E/DX2                !
 ! D197  D(60,59,68,55)         63.5992         estimate D2E/DX2                !
 ! D198  D(60,59,68,63)       -177.1913         estimate D2E/DX2                !
 ! D199  D(61,59,68,40)         65.828          estimate D2E/DX2                !
 ! D200  D(61,59,68,55)       -175.8567         estimate D2E/DX2                !
 ! D201  D(61,59,68,63)        -56.6472         estimate D2E/DX2                !
 ! D202  D(62,59,68,40)       -173.9289         estimate D2E/DX2                !
 ! D203  D(62,59,68,55)        -55.6136         estimate D2E/DX2                !
 ! D204  D(62,59,68,63)         63.5959         estimate D2E/DX2                !
 ! D205  D(64,63,68,40)        -59.2256         estimate D2E/DX2                !
 ! D206  D(64,63,68,55)       -177.2977         estimate D2E/DX2                !
 ! D207  D(64,63,68,59)         63.8885         estimate D2E/DX2                !
 ! D208  D(65,63,68,40)         62.0184         estimate D2E/DX2                !
 ! D209  D(65,63,68,55)        -56.0537         estimate D2E/DX2                !
 ! D210  D(65,63,68,59)       -174.8675         estimate D2E/DX2                !
 ! D211  D(66,63,68,40)       -178.5244         estimate D2E/DX2                !
 ! D212  D(66,63,68,55)         63.4034         estimate D2E/DX2                !
 ! D213  D(66,63,68,59)        -55.4104         estimate D2E/DX2                !
 ! D214  D(76,74,75,49)        142.9632         estimate D2E/DX2                !
 ! D215  D(77,74,75,49)        -40.1638         estimate D2E/DX2                !
 ! D216  D(75,74,76,80)         23.8037         estimate D2E/DX2                !
 ! D217  D(77,74,76,80)       -153.0639         estimate D2E/DX2                !
 ! D218  D(75,74,77,38)        -11.5171         estimate D2E/DX2                !
 ! D219  D(75,74,77,45)         64.1975         estimate D2E/DX2                !
 ! D220  D(75,74,77,83)       -151.9251         estimate D2E/DX2                !
 ! D221  D(76,74,77,38)        165.4684         estimate D2E/DX2                !
 ! D222  D(76,74,77,45)       -118.817          estimate D2E/DX2                !
 ! D223  D(76,74,77,83)         25.0604         estimate D2E/DX2                !
 ! D224  D(74,76,78,79)        -31.6743         estimate D2E/DX2                !
 ! D225  D(38,77,81,82)        154.8434         estimate D2E/DX2                !
 ! D226  D(45,77,81,82)         79.5898         estimate D2E/DX2                !
 ! D227  D(74,77,81,82)        -67.4298         estimate D2E/DX2                !
 --------------------------------------------------------------------------------
 Trust Radius=3.00D-01 FncErr=1.00D-07 GrdErr=1.00D-06 EigMax=2.50D+02 EigMin=1.00D-04
 Number of steps in this run=    482 maximum allowed number of steps=    498.
 GradGradGradGradGradGradGradGradGradGradGradGradGradGradGradGradGradGrad

 Leave Link  103 at Sat Apr 20 11:30:31 2024, MaxMem=  1879048192 cpu:               1.0 elap:               0.1
 (Enter /packages/apps/gaussian/g16/g16/l202.exe)
 Stoichiometry    C28H48N2O5
 Framework group  C1[X(C28H48N2O5)]
 Deg. of freedom   243
 Full point group                 C1      NOp   1
 Largest Abelian subgroup         C1      NOp   1
 Largest concise Abelian subgroup C1      NOp   1
                         Standard orientation:                         
 ---------------------------------------------------------------------
 Center     Atomic      Atomic             Coordinates (Angstroms)
 Number     Number       Type             X           Y           Z
 ---------------------------------------------------------------------
      1          6           0       -3.399525   -3.904720   -2.164736
      2          6           0       -3.259010   -3.177248   -0.826454
      3          1           0       -2.713544   -4.749368   -2.229686
      4          1           0       -4.416504   -4.279086   -2.287871
      5          1           0       -3.191685   -3.238507   -3.003610
      6          6           0       -4.188298   -1.954156   -0.761982
      7          1           0       -3.562310   -3.870899   -0.036913
      8          6           0       -4.351781   -1.378613    0.648918
      9          1           0       -5.216459   -1.837978    1.133599
     10          1           0       -3.486908   -1.643187    1.261022
     11          6           0       -4.507008    0.147746    0.682648
     12          6           0       -4.895373    0.632936    2.085668
     13          6           0       -5.128014    2.136664    2.170124
     14          1           0       -5.441616    2.429533    3.172047
     15          1           0       -4.220028    2.689558    1.927068
     16          1           0       -5.905462    2.450979    1.470612
     17          6           0       -1.826707   -2.768510   -0.541758
     18          6           0       -1.082430   -2.044879   -1.471284
     19          6           0       -1.232939   -3.055211    0.683276
     20          6           0        0.217621   -1.654109   -1.198223
     21          1           0       -1.525436   -1.766645   -2.418791
     22          6           0        0.061686   -2.648338    0.966365
     23          1           0       -1.797351   -3.595225    1.433722
     24          6           0        0.817444   -1.966150    0.018901
     25          1           0        0.771648   -1.076732   -1.928116
     26          1           0        0.488281   -2.854762    1.939976
     27          6           0       -3.244962    0.818521    0.178406
     28          6           0       -3.255644    1.580628   -0.983577
     29          6           0       -2.032909    0.660743    0.850336
     30          6           0       -2.092435    2.170439   -1.457834
     31          1           0       -4.182280    1.705901   -1.530282
     32          6           0       -0.867946    1.245712    0.387362
     33          1           0       -1.987816    0.054479    1.746179
     34          6           0       -0.891867    2.019055   -0.773970
     35          1           0       -2.121274    2.741862   -2.378795
     36          1           0        0.077931    1.114041    0.911665
     37          6           0        0.381844    2.616521   -1.287190
     38          1           0        1.258145    2.014818   -1.007060
     39          1           0        0.350487    2.744808   -2.369508
     40          6           0        2.218178   -1.527527    0.324870
     41          1           0        2.487180   -0.642619   -0.247085
     42          1           0        2.349634   -1.301779    1.382711
     43          6           0        2.070737    4.356213   -1.218294
     44          1           0        2.330366    5.338961   -0.831434
     45          1           0        2.752258    3.577465   -0.863379
     46          1           0        2.055748    4.375865   -2.306126
     47          6           0        0.713208    3.987250    0.762932
     48          1           0       -0.308761    3.866691    1.111438
     49          1           0        1.328598    3.140839    1.110222
     50          1           0        1.109031    4.942860    1.100097
     51          6           0       -0.277076    5.005656   -1.212931
     52          1           0       -0.250077    5.041021   -2.299778
     53          1           0       -1.270244    4.722218   -0.876126
     54          1           0       -0.010948    5.977931   -0.804888
     55          6           0        4.595197   -2.062544    0.529259
     56          1           0        5.379434   -2.726019    0.170117
     57          1           0        4.740104   -1.035302    0.202473
     58          1           0        4.538546   -2.070276    1.613958
     59          6           0        2.991687   -3.868939    0.631145
     60          1           0        2.865458   -3.707602    1.698785
     61          1           0        2.086066   -4.288156    0.203655
     62          1           0        3.831911   -4.536279    0.454945
     63          6           0        3.403379   -2.728041   -1.483326
     64          1           0        2.441680   -3.045922   -1.877163
     65          1           0        3.712435   -1.768831   -1.903337
     66          1           0        4.153612   -3.489754   -1.686043
     67          7           0        0.701878    4.003225   -0.733701
     68          7           0        3.289558   -2.564345   -0.008239
     69          1           0       -5.167659   -2.228703   -1.161050
     70          1           0       -3.787206   -1.191154   -1.433875
     71          1           0       -4.116972    0.339999    2.795429
     72          1           0       -5.801566    0.104145    2.391311
     73          1           0       -5.320256    0.422215    0.002156
     74          6           0        3.110584    1.304669    0.873840
     75          8           0        2.092068    1.488320    1.621257
     76          8           0        4.181429    0.766459    1.301011
     77          8           0        3.026969    1.628765   -0.396133
     78          8           0        3.354129   -0.785493    3.260041
     79          1           0        2.605694   -0.272313    3.568574
     80          1           0        3.753988   -0.144911    2.602410
     81          8           0        4.444815    0.227651   -2.032966
     82          1           0        5.365504    0.415275   -1.856351
     83          1           0        3.947449    0.810156   -1.373960
 ---------------------------------------------------------------------
 Rotational constants (GHZ):           0.1289408           0.0946626           0.0674286
 Leave Link  202 at Sat Apr 20 11:30:32 2024, MaxMem=  1879048192 cpu:               1.4 elap:               0.2
 (Enter /packages/apps/gaussian/g16/g16/l301.exe)
 Standard basis: 6-311+G(2d,2p) (5D, 7F)
 Ernie: Thresh=  0.10000D-02 Tol=  0.10000D-05 Strict=F.
 There are  1447 symmetry adapted cartesian basis functions of A   symmetry.
 There are  1377 symmetry adapted basis functions of A   symmetry.
  1377 basis functions,  1998 primitive gaussians,  1447 cartesian basis functions
   135 alpha electrons      135 beta electrons
       nuclear repulsion energy      4299.3154373071 Hartrees.
 IExCor= 4639 DFT=T Ex+Corr=wB97XD ExCW=0 ScaHFX=  1.000000
 ScaDFX=  1.000000  1.000000  1.000000  1.000000 ScalE2=  1.000000  1.000000
 IRadAn=      5 IRanWt=     -1 IRanGd=            0 ICorTp=0 IEmpDi=121
 HFx  wShort=  0.000000 wLong=  0.200000 cFull=  0.222036 cShort=  0.000000 cLong=  0.777964
 DFx  wShort=  0.000000 wLong=  0.200000 cFull=  0.000000 cShort=  0.000000 cLong=  1.000000
 NAtoms=   83 NActive=   83 NUniq=   83 SFac= 1.00D+00 NAtFMM=   60 NAOKFM=T Big=T
 Integral buffers will be    131072 words long.
 Raffenetti 2 integral format.
 Two-electron integral symmetry is turned on.
 R6Disp:  Grimme-D2 Dispersion energy=       -0.0956346580 Hartrees.
 Nuclear repulsion after empirical dispersion term =     4299.2198026491 Hartrees.
 Leave Link  301 at Sat Apr 20 11:30:32 2024, MaxMem=  1879048192 cpu:               1.4 elap:               0.2
 (Enter /packages/apps/gaussian/g16/g16/l302.exe)
 NPDir=0 NMtPBC=     1 NCelOv=     1 NCel=       1 NClECP=     1 NCelD=      1
         NCelK=      1 NCelE2=     1 NClLst=     1 CellRange=     0.0.
 One-electron integrals computed using PRISM.
 One-electron integral symmetry used in STVInt
 NBasis=  1377 RedAO= T EigKep=  1.27D-06  NBF=  1377
 NBsUse=  1368 1.00D-06 EigRej=  8.85D-07 NBFU=  1368
 Precomputing XC quadrature grid using
 IXCGrd= 4 IRadAn=           5 IRanWt=          -1 IRanGd=           0 AccXCQ= 0.00D+00.
 Generated NRdTot=       0 NPtTot=           0 NUsed=           0 NTot=          32
 NSgBfM=  1374  1374  1374  1374  1374 MxSgAt=    83 MxSgA2=    83.
 Leave Link  302 at Sat Apr 20 11:30:47 2024, MaxMem=  1879048192 cpu:             172.4 elap:              14.8
 (Enter /packages/apps/gaussian/g16/g16/l303.exe)
 DipDrv:  MaxL=1.
 Leave Link  303 at Sat Apr 20 11:30:48 2024, MaxMem=  1879048192 cpu:               4.5 elap:               0.8
 (Enter /packages/apps/gaussian/g16/g16/l401.exe)
 ExpMin= 4.38D-02 ExpMax= 8.59D+03 ExpMxC= 1.30D+03 IAcc=3 IRadAn=         5 AccDes= 0.00D+00
 Harris functional with IExCor= 4639 and IRadAn=       5 diagonalized for initial guess.
 HarFok:  IExCor= 4639 AccDes= 0.00D+00 IRadAn=         5 IDoV= 1 UseB2=F ITyADJ=14
 ICtDFT=  3500011 ScaDFX=  1.000000  1.000000  1.000000  1.000000
 FoFCou: FMM=F IPFlag=           0 FMFlag=      100000 FMFlg1=        2001
         NFxFlg=           0 DoJE=T BraDBF=F KetDBF=T FulRan=T
         wScrn=  0.000000 ICntrl=       500 IOpCl=  0 I1Cent=   200000004 NGrid=           0
         NMat0=    1 NMatS0=      1 NMatT0=    0 NMatD0=    1 NMtDS0=    0 NMtDT0=    0
 Petite list used in FoFCou.
 Harris En= -1511.36035101090    
 JPrj=0 DoOrth=F DoCkMO=F.
 Leave Link  401 at Sat Apr 20 11:30:58 2024, MaxMem=  1879048192 cpu:             178.2 elap:              10.4
 (Enter /packages/apps/gaussian/g16/g16/l502.exe)
 Integral symmetry usage will be decided dynamically.
 Closed shell SCF:
 Using DIIS extrapolation, IDIIS=  1040.
 NGot=  1879048192 LenX=  1874818345 LenY=  1872723089
 Requested convergence on RMS density matrix=1.00D-08 within 128 cycles.
 Requested convergence on MAX density matrix=1.00D-06.
 Requested convergence on             energy=1.00D-06.
 No special actions if energy rises.
 Fock matrices will be formed incrementally for  20 cycles.

 Cycle   1  Pass 1  IDiag  1:
 FoFJK:  IHMeth= 1 ICntrl=       0 DoSepK=T KAlg= 0 I1Cent=           0 FoldK=F
 IRaf=         1 NMat=       1 IRICut=       1 DoRegI=T DoRafI=F ISym2E= 0 IDoP0=0 IntGTp=1.
 FoFCou: FMM=T IPFlag=           0 FMFlag=      100000 FMFlg1=        2001
         NFxFlg=           0 DoJE=T BraDBF=F KetDBF=F FulRan=T
         wScrn=  0.000000 ICntrl=       500 IOpCl=  0 I1Cent=           0 NGrid=           0
         NMat0=    1 NMatS0=      1 NMatT0=    0 NMatD0=    1 NMtDS0=    0 NMtDT0=    0
 Symmetry not used in FoFCou.
 FMM levels:  10  Number of levels for PrismC:   9
 E= -1580.97788908550    
 DIIS: error= 4.42D-02 at cycle   1 NSaved=   1.
 NSaved= 1 IEnMin= 1 EnMin= -1580.97788908550     IErMin= 1 ErrMin= 4.42D-02
 ErrMax= 4.42D-02  0.00D+00 EMaxC= 1.00D-01 BMatC= 3.43D+00 BMatP= 3.43D+00
 IDIUse=3 WtCom= 5.58D-01 WtEn= 4.42D-01
 Coeff-Com:  0.100D+01
 Coeff-En:   0.100D+01
 Coeff:      0.100D+01
 Gap=     0.301 Goal=   None    Shift=    0.000
 GapD=    0.301 DampG=1.000 DampE=0.500 DampFc=0.5000 IDamp=-1.
 Damping current iteration by 5.00D-01
 RMSDP=4.68D-03 MaxDP=7.78D-01              OVMax= 1.29D-01

 Cycle   2  Pass 1  IDiag  1:
 RMSU=  1.36D-03    CP:  8.57D-01
 E= -1581.23943259354     Delta-E=       -0.261543508035 Rises=F Damp=T
 DIIS: error= 1.91D-02 at cycle   2 NSaved=   2.
 NSaved= 2 IEnMin= 2 EnMin= -1581.23943259354     IErMin= 2 ErrMin= 1.91D-02
 ErrMax= 1.91D-02  0.00D+00 EMaxC= 1.00D-01 BMatC= 7.11D-01 BMatP= 3.43D+00
 IDIUse=3 WtCom= 8.09D-01 WtEn= 1.91D-01
 Coeff-Com: -0.579D+00 0.158D+01
 Coeff-En:   0.000D+00 0.100D+01
 Coeff:     -0.468D+00 0.147D+01
 Gap=     0.279 Goal=   None    Shift=    0.000
 RMSDP=2.88D-03 MaxDP=4.50D-01 DE=-2.62D-01 OVMax= 1.08D-01

 Cycle   3  Pass 1  IDiag  1:
 RMSU=  1.15D-03    CP:  6.76D-01  1.78D+00
 E= -1581.38210946453     Delta-E=       -0.142676870993 Rises=F Damp=F
 DIIS: error= 1.09D-02 at cycle   3 NSaved=   3.
 NSaved= 3 IEnMin= 3 EnMin= -1581.38210946453     IErMin= 3 ErrMin= 1.09D-02
 ErrMax= 1.09D-02  0.00D+00 EMaxC= 1.00D-01 BMatC= 1.92D-01 BMatP= 7.11D-01
 IDIUse=3 WtCom= 8.91D-01 WtEn= 1.09D-01
 Coeff-Com: -0.358D+00 0.765D+00 0.593D+00
 Coeff-En:   0.000D+00 0.000D+00 0.100D+01
 Coeff:     -0.319D+00 0.682D+00 0.637D+00
 Gap=     0.275 Goal=   None    Shift=    0.000
 RMSDP=6.39D-04 MaxDP=7.03D-02 DE=-1.43D-01 OVMax= 5.17D-02

 Cycle   4  Pass 1  IDiag  1:
 RMSU=  4.44D-04    CP:  6.73D-01  2.01D+00  7.10D-01
 E= -1581.53047732647     Delta-E=       -0.148367861939 Rises=F Damp=F
 DIIS: error= 1.69D-03 at cycle   4 NSaved=   4.
 NSaved= 4 IEnMin= 4 EnMin= -1581.53047732647     IErMin= 4 ErrMin= 1.69D-03
 ErrMax= 1.69D-03  0.00D+00 EMaxC= 1.00D-01 BMatC= 6.11D-03 BMatP= 1.92D-01
 IDIUse=3 WtCom= 9.83D-01 WtEn= 1.69D-02
 Coeff-Com: -0.103D+00 0.220D+00 0.268D+00 0.616D+00
 Coeff-En:   0.000D+00 0.000D+00 0.000D+00 0.100D+01
 Coeff:     -0.101D+00 0.216D+00 0.263D+00 0.622D+00
 Gap=     0.269 Goal=   None    Shift=    0.000
 RMSDP=1.40D-04 MaxDP=1.87D-02 DE=-1.48D-01 OVMax= 7.71D-03

 Cycle   5  Pass 1  IDiag  1:
 RMSU=  1.13D-04    CP:  6.72D-01  2.01D+00  7.74D-01  9.22D-01
 E= -1581.53523583533     Delta-E=       -0.004758508862 Rises=F Damp=F
 DIIS: error= 2.14D-04 at cycle   5 NSaved=   5.
 NSaved= 5 IEnMin= 5 EnMin= -1581.53523583533     IErMin= 5 ErrMin= 2.14D-04
 ErrMax= 2.14D-04  0.00D+00 EMaxC= 1.00D-01 BMatC= 1.64D-04 BMatP= 6.11D-03
 IDIUse=3 WtCom= 9.98D-01 WtEn= 2.14D-03
 Coeff-Com:  0.129D-01-0.277D-01 0.156D-01 0.227D+00 0.772D+00
 Coeff-En:   0.000D+00 0.000D+00 0.000D+00 0.000D+00 0.100D+01
 Coeff:      0.129D-01-0.277D-01 0.155D-01 0.227D+00 0.772D+00
 Gap=     0.267 Goal=   None    Shift=    0.000
 RMSDP=6.02D-05 MaxDP=1.04D-02 DE=-4.76D-03 OVMax= 2.66D-03

 Cycle   6  Pass 1  IDiag  1:
 RMSU=  3.41D-05    CP:  6.72D-01  2.02D+00  7.85D-01  1.02D+00  1.04D+00
 E= -1581.53535930436     Delta-E=       -0.000123469033 Rises=F Damp=F
 DIIS: error= 1.10D-04 at cycle   6 NSaved=   6.
 NSaved= 6 IEnMin= 6 EnMin= -1581.53535930436     IErMin= 6 ErrMin= 1.10D-04
 ErrMax= 1.10D-04  0.00D+00 EMaxC= 1.00D-01 BMatC= 4.02D-05 BMatP= 1.64D-04
 IDIUse=3 WtCom= 9.99D-01 WtEn= 1.10D-03
 Coeff-Com:  0.167D-01-0.357D-01-0.179D-01 0.544D-01 0.407D+00 0.575D+00
 Coeff-En:   0.000D+00 0.000D+00 0.000D+00 0.000D+00 0.420D-01 0.958D+00
 Coeff:      0.166D-01-0.357D-01-0.179D-01 0.544D-01 0.407D+00 0.576D+00
 Gap=     0.267 Goal=   None    Shift=    0.000
 RMSDP=2.30D-05 MaxDP=5.98D-03 DE=-1.23D-04 OVMax= 1.13D-03

 Cycle   7  Pass 1  IDiag  1:
 RMSU=  1.19D-05    CP:  6.72D-01  2.03D+00  7.92D-01  1.05D+00  1.13D+00
                    CP:  9.16D-01
 E= -1581.53539321598     Delta-E=       -0.000033911617 Rises=F Damp=F
 DIIS: error= 1.62D-05 at cycle   7 NSaved=   7.
 NSaved= 7 IEnMin= 7 EnMin= -1581.53539321598     IErMin= 7 ErrMin= 1.62D-05
 ErrMax= 1.62D-05  0.00D+00 EMaxC= 1.00D-01 BMatC= 1.00D-06 BMatP= 4.02D-05
 IDIUse=1 WtCom= 1.00D+00 WtEn= 0.00D+00
 Coeff-Com:  0.319D-02-0.678D-02-0.546D-02-0.362D-02 0.404D-01 0.151D+00
 Coeff-Com:  0.822D+00
 Coeff:      0.319D-02-0.678D-02-0.546D-02-0.362D-02 0.404D-01 0.151D+00
 Coeff:      0.822D+00
 Gap=     0.267 Goal=   None    Shift=    0.000
 RMSDP=8.40D-06 MaxDP=1.61D-03 DE=-3.39D-05 OVMax= 2.79D-04

 Cycle   8  Pass 1  IDiag  1:
 RMSU=  3.03D-06    CP:  6.72D-01  2.03D+00  7.93D-01  1.06D+00  1.15D+00
                    CP:  9.72D-01  1.09D+00
 E= -1581.53539420552     Delta-E=       -0.000000989540 Rises=F Damp=F
 DIIS: error= 6.27D-06 at cycle   8 NSaved=   8.
 NSaved= 8 IEnMin= 8 EnMin= -1581.53539420552     IErMin= 8 ErrMin= 6.27D-06
 ErrMax= 6.27D-06  0.00D+00 EMaxC= 1.00D-01 BMatC= 2.02D-07 BMatP= 1.00D-06
 IDIUse=1 WtCom= 1.00D+00 WtEn= 0.00D+00
 Coeff-Com:  0.761D-04-0.127D-03-0.925D-03-0.604D-02-0.163D-01 0.155D-01
 Coeff-Com:  0.352D+00 0.656D+00
 Coeff:      0.761D-04-0.127D-03-0.925D-03-0.604D-02-0.163D-01 0.155D-01
 Coeff:      0.352D+00 0.656D+00
 Gap=     0.267 Goal=   None    Shift=    0.000
 RMSDP=2.14D-06 MaxDP=3.80D-04 DE=-9.90D-07 OVMax= 9.60D-05

 Cycle   9  Pass 1  IDiag  1:
 RMSU=  1.20D-06    CP:  6.72D-01  2.03D+00  7.93D-01  1.06D+00  1.16D+00
                    CP:  9.96D-01  1.14D+00  1.02D+00
 E= -1581.53539438481     Delta-E=       -0.000000179287 Rises=F Damp=F
 DIIS: error= 2.46D-06 at cycle   9 NSaved=   9.
 NSaved= 9 IEnMin= 9 EnMin= -1581.53539438481     IErMin= 9 ErrMin= 2.46D-06
 ErrMax= 2.46D-06  0.00D+00 EMaxC= 1.00D-01 BMatC= 2.92D-08 BMatP= 2.02D-07
 IDIUse=1 WtCom= 1.00D+00 WtEn= 0.00D+00
 Coeff-Com: -0.383D-03 0.825D-03 0.305D-03-0.236D-02-0.129D-01-0.128D-01
 Coeff-Com:  0.555D-01 0.299D+00 0.672D+00
 Coeff:     -0.383D-03 0.825D-03 0.305D-03-0.236D-02-0.129D-01-0.128D-01
 Coeff:      0.555D-01 0.299D+00 0.672D+00
 Gap=     0.267 Goal=   None    Shift=    0.000
 RMSDP=9.94D-07 MaxDP=1.92D-04 DE=-1.79D-07 OVMax= 5.01D-05

 Cycle  10  Pass 1  IDiag  1:
 RMSU=  4.43D-07    CP:  6.72D-01  2.03D+00  7.94D-01  1.06D+00  1.16D+00
                    CP:  1.00D+00  1.17D+00  1.13D+00  1.12D+00
 E= -1581.53539441796     Delta-E=       -0.000000033149 Rises=F Damp=F
 DIIS: error= 1.06D-06 at cycle  10 NSaved=  10.
 NSaved=10 IEnMin=10 EnMin= -1581.53539441796     IErMin=10 ErrMin= 1.06D-06
 ErrMax= 1.06D-06  0.00D+00 EMaxC= 1.00D-01 BMatC= 2.06D-09 BMatP= 2.92D-08
 IDIUse=1 WtCom= 1.00D+00 WtEn= 0.00D+00
 Coeff-Com: -0.114D-03 0.239D-03 0.191D-03 0.312D-04-0.164D-02-0.544D-02
 Coeff-Com: -0.284D-01-0.584D-02 0.187D+00 0.854D+00
 Coeff:     -0.114D-03 0.239D-03 0.191D-03 0.312D-04-0.164D-02-0.544D-02
 Coeff:     -0.284D-01-0.584D-02 0.187D+00 0.854D+00
 Gap=     0.267 Goal=   None    Shift=    0.000
 RMSDP=4.83D-07 MaxDP=5.71D-05 DE=-3.31D-08 OVMax= 2.15D-05

 Cycle  11  Pass 1  IDiag  1:
 RMSU=  1.61D-07    CP:  6.72D-01  2.03D+00  7.94D-01  1.07D+00  1.16D+00
                    CP:  1.01D+00  1.18D+00  1.20D+00  1.27D+00  1.11D+00
 E= -1581.53539442192     Delta-E=       -0.000000003959 Rises=F Damp=F
 DIIS: error= 2.91D-07 at cycle  11 NSaved=  11.
 NSaved=11 IEnMin=11 EnMin= -1581.53539442192     IErMin=11 ErrMin= 2.91D-07
 ErrMax= 2.91D-07  0.00D+00 EMaxC= 1.00D-01 BMatC= 3.79D-10 BMatP= 2.06D-09
 IDIUse=1 WtCom= 1.00D+00 WtEn= 0.00D+00
 Coeff-Com:  0.932D-06-0.369D-05 0.322D-04 0.262D-03 0.799D-03-0.715D-03
 Coeff-Com: -0.170D-01-0.375D-01-0.741D-02 0.325D+00 0.737D+00
 Coeff:      0.932D-06-0.369D-05 0.322D-04 0.262D-03 0.799D-03-0.715D-03
 Coeff:     -0.170D-01-0.375D-01-0.741D-02 0.325D+00 0.737D+00
 Gap=     0.267 Goal=   None    Shift=    0.000
 RMSDP=1.26D-07 MaxDP=1.39D-05 DE=-3.96D-09 OVMax= 8.55D-06

 Cycle  12  Pass 1  IDiag  1:
 RMSU=  5.18D-08    CP:  6.72D-01  2.03D+00  7.94D-01  1.07D+00  1.16D+00
                    CP:  1.01D+00  1.19D+00  1.21D+00  1.32D+00  1.21D+00
                    CP:  1.17D+00
 E= -1581.53539442247     Delta-E=       -0.000000000549 Rises=F Damp=F
 DIIS: error= 1.73D-07 at cycle  12 NSaved=  12.
 NSaved=12 IEnMin=12 EnMin= -1581.53539442247     IErMin=12 ErrMin= 1.73D-07
 ErrMax= 1.73D-07  0.00D+00 EMaxC= 1.00D-01 BMatC= 4.82D-11 BMatP= 3.79D-10
 IDIUse=1 WtCom= 1.00D+00 WtEn= 0.00D+00
 Coeff-Com:  0.137D-04-0.292D-04-0.140D-04 0.761D-04 0.464D-03 0.548D-03
 Coeff-Com: -0.394D-03-0.101D-01-0.319D-01-0.347D-01 0.227D+00 0.850D+00
 Coeff:      0.137D-04-0.292D-04-0.140D-04 0.761D-04 0.464D-03 0.548D-03
 Coeff:     -0.394D-03-0.101D-01-0.319D-01-0.347D-01 0.227D+00 0.850D+00
 Gap=     0.267 Goal=   None    Shift=    0.000
 RMSDP=5.15D-08 MaxDP=7.64D-06 DE=-5.49D-10 OVMax= 6.24D-06

 Cycle  13  Pass 1  IDiag  1:
 RMSU=  1.83D-08    CP:  6.72D-01  2.03D+00  7.94D-01  1.07D+00  1.16D+00
                    CP:  1.01D+00  1.19D+00  1.22D+00  1.34D+00  1.24D+00
                    CP:  1.34D+00  1.23D+00
 E= -1581.53539442271     Delta-E=       -0.000000000246 Rises=F Damp=F
 DIIS: error= 5.21D-08 at cycle  13 NSaved=  13.
 NSaved=13 IEnMin=13 EnMin= -1581.53539442271     IErMin=13 ErrMin= 5.21D-08
 ErrMax= 5.21D-08  0.00D+00 EMaxC= 1.00D-01 BMatC= 8.07D-12 BMatP= 4.82D-11
 IDIUse=1 WtCom= 1.00D+00 WtEn= 0.00D+00
 Coeff-Com:  0.380D-05-0.788D-05-0.829D-05-0.138D-04 0.287D-04 0.247D-03
[...]
 1,-0.00001323,-0.00000096,-0.00000049,0.00000161,-0.00000523,-0.000003
 79,0.00000407,-0.00000374,-0.00000448,0.00000164,0.00000843,0.00000724
 ,-0.00000352,0.00001423,-0.00000452,0.00000973,0.00000197,0.00000771,-
 0.00000845,0.00000603,0.00000074,0.00000177,0.00000751,0.00000500,-0.0
 0000396,-0.00000294,0.00000285,-0.00000157,-0.00000345,-0.00001785,0.0
 0000730,-0.00000287,-0.00000232,0.00000003,-0.00004645,-0.00000868,-0.
 00000729,0.00005365,-0.00004574,0.00004492,-0.00016278,0.00004587,-0.0
 0007912,0.00000609,-0.00000916,0.00000083,-0.00001712,0.00007120,-0.00
 003912,-0.00008822,-0.00006391,-0.00002129,-0.00000634,-0.00001847,0.0
 0001131,-0.00002188,0.00001017,0.00000807,0.00001691,-0.00001554,-0.00
 001058,-0.00007513,0.00010936,0.00002382,-0.00001065,0.00001950,-0.000
 00729,0.00001780,-0.00001233,0.00001739,0.00000823,-0.00000193,-0.0000
 0180,-0.00003870,0.00005993,-0.00000965,-0.00000364,-0.00000533,0.0000
 0445,-0.00000810,0.00002649,-0.00001267,-0.00000235,0.00000120,0.00000
 119,0.00000647,-0.00000247,0.00000056,-0.00000233,-0.00000197,-0.00000
 150,0.00000201,-0.00017069,-0.00030196,0.00001472,0.00012022,0.0000194
 6,0.00001681,-0.00043535,0.00053272,0.00003465,0.00014498,-0.00002851,
 0.00003531,-0.00003166,0.00003282,-0.00000252,-0.00000344,-0.00000043,
 0.00000885,0.00001834,-0.00000217,0.00000022,-0.00000019,0.00000145,0.
 00024519,0.00043713,-0.00017013,0.00001471,0.00004437,-0.00000879,-0.0
 0045388,-0.00075004,0.00009510,-0.00001353,0.00000846,-0.00000085,0.00
 002157,-0.00000864,-0.00000383,-0.00007653,-0.00000825,0.00006789,0.00
 000781,-0.00000020,0.00000075,-0.00000208,-0.00000040,-0.00000428,-0.0
 0000123,-0.00000190,0.00000230,0.00000540,0.00000138,-0.00000316,0.000
 00440,-0.00000086,0.00000162,-0.00094979,0.00066339,0.00043643,0.00035
 463,-0.00022333,-0.00024069,0.00043237,-0.00011245,-0.00070821,0.00151
 433,0.00061427,0.00087810,0.00005180,0.00012839,-0.00017425,-0.0000076
 1,-0.00001546,0.00002880,-0.00005911,-0.00018129,0.00022835,-0.5079222
 7,-0.08256638,-0.07385521,0.53218513,0.00000574,0.00000296,-0.00000314
 ,-0.00000709,-0.00000551,0.00000361,0.00000081,-0.00000540,-0.00000169
 ,0.00000305,0.00000190,0.00000194,-0.00000237,-0.00000047,0.00000082,0
 .00000391,0.00000806,0.00000156,0.00000018,-0.00000072,0.00000128,-0.0
 0000661,0.00000266,0.00000222,-0.00000122,-0.00000511,-0.00000014,0.00
 000018,0.00000337,0.00000272,0.00000892,0.00000525,0.00000042,-0.00000
 575,-0.00000447,-0.00000153,0.00000396,0.00000125,-0.00000179,-0.00000
 037,-0.00000070,0.00000052,-0.00000248,-0.00000227,-0.00000045,0.00000
 085,-0.00000049,0.00000008,-0.00000862,-0.00000243,-0.00000286,0.00000
 900,-0.00000709,0.00001856,-0.00000229,-0.00000827,0.00001500,0.000033
 44,0.00004341,-0.00006749,0.00000522,0.00000620,0.00000693,0.00000524,
 -0.00001733,0.00000093,-0.00000087,0.00000610,0.00000043,0.00003397,-0
 .00010241,0.00000364,0.00003235,-0.00000088,0.00001520,-0.00000919,0.0
 0000163,0.00001435,-0.00000113,0.00000215,-0.00000787,-0.00000605,-0.0
 0001316,0.00001018,-0.00000258,-0.00000370,-0.00000522,0.00000492,-0.0
 0001092,0.00000544,-0.00000420,0.00000190,0.00000027,-0.00001121,-0.00
 000525,-0.00000420,-0.00000492,0.00000122,0.00000836,0.00000896,0.0000
 0021,-0.00001301,0.00000520,0.00000173,0.00000773,0.00000286,0.0000141
 7,-0.00000409,0.00000600,0.00009963,-0.00001054,0.00003590,-0.00000326
 ,0.00004150,-0.00000077,0.00000095,0.00000699,-0.00021445,0.00037764,0
 .00006427,0.00003875,-0.00001537,-0.00014424,-0.00001550,-0.00003671,0
 .00002854,0.00009096,-0.00005410,-0.00001133,0.00000369,-0.00001508,0.
 00000494,0.00012062,0.00003785,-0.00007865,0.00003779,-0.00002105,0.00
 002198,-0.00000437,-0.00002131,-0.00002815,-0.00001266,0.00000455,0.00
 001044,-0.00001526,0.00006150,-0.00002227,0.00000926,-0.00001357,-0.00
 000466,-0.00001298,-0.00003473,0.00001724,0.00001192,0.00000315,0.0000
 0394,-0.00001407,0.00001125,0.00000182,0.00000705,-0.00000554,-0.00000
 506,-0.00033038,-0.00050158,-0.00044928,0.00005606,-0.00030602,0.00014
 944,-0.00062744,0.00014798,0.00117231,0.00019848,0.00032925,-0.0000264
 3,0.00013533,-0.00002021,0.00018253,-0.00003739,-0.00001372,0.00003030
 ,0.00003937,0.00007826,-0.00000729,-0.00000728,-0.00005099,-0.00001128
 ,0.00019876,-0.00109239,0.00007604,0.00006342,0.00004855,-0.00004238,-
 0.00095863,0.00148018,-0.00031317,-0.00009739,-0.00047070,0.00015487,-
 0.00006773,-0.00000915,0.00001113,0.00018842,-0.00003576,-0.00017126,0
 .00000416,-0.00000350,-0.00000062,-0.00000161,0.00000175,0.00000312,0.
 00000245,0.00000108,-0.00000006,-0.00000428,-0.00000111,0.00000299,-0.
 00000118,-0.00000166,0.00000063,-0.00029468,-0.00002862,-0.00092725,0.
 00020160,0.00005809,0.00015740,0.00021276,-0.00082903,0.00012004,-0.00
 030014,-0.00180720,-0.00140427,0.00006553,-0.00017919,-0.00000522,-0.0
 0000902,0.00000622,-0.00001603,-0.00000949,0.00019318,-0.00008444,-0.1
 1411832,-0.04188465,-0.03688239,0.09133853,0.03749831,-0.00001286,-0.0
 0000127,0.00000488,0.00001460,0.00001525,0.00000177,0.00000445,0.00000
 151,0.00000300,-0.00000964,-0.00000437,-0.00000444,0.00000380,0.000003
 69,0.00000085,-0.00000350,-0.00000987,-0.00000442,-0.00000383,-0.00000
 354,0.00000008,0.00000358,0.00000106,0.00000204,-0.00000577,-0.0000029
 8,0.00000155,0.00000083,0.00000012,-0.00000757,0.00000706,0.00000022,-
 0.00000061,0.00000344,-0.00000325,-0.00000159,0.00000278,0.00000067,0.
 00000174,-0.00000054,0.00000121,0.00000388,0.00000011,-0.00000356,-0.0
 0000043,-0.00000274,0.00000049,-0.00000379,0.00000936,-0.00000131,-0.0
 0000190,-0.00001665,-0.00002052,0.00001819,-0.00000579,0.00000071,-0.0
 0001815,-0.00001164,0.00000218,-0.00000154,-0.00000650,0.00000414,-0.0
 0000667,0.00000278,0.00000571,0.00000142,-0.00000408,-0.00000449,0.000
 00464,-0.00001329,0.00004664,-0.00002218,0.00003139,0.00000923,-0.0000
 0405,0.00000878,0.00000730,-0.00000696,0.00000643,0.00000139,0.0000022
 4,-0.00000839,-0.00000047,-0.00000376,-0.00002116,0.00000875,-0.000014
 01,-0.00000154,-0.00000475,0.00000809,-0.00000656,-0.00000139,-0.00000
 213,-0.00000747,-0.00000432,0.00000519,0.00000819,-0.00000151,-0.00000
 174,-0.00000746,0.00001879,-0.00000404,-0.00000108,0.00000469,-0.00000
 670,0.00008032,0.00000647,0.00002247,-0.00004674,-0.00000927,-0.000019
 27,0.00014144,-0.00007641,0.00005800,-0.00001172,0.00000391,-0.0000107
 5,0.00018046,-0.00023337,-0.00007542,-0.00008300,0.00004077,0.00015824
 ,0.00005699,0.00007679,-0.00000208,-0.00004418,0.00001604,0.00004984,-
 0.00000108,0.00000819,0.00000446,0.00002907,-0.00009503,0.00006310,-0.
 00004062,0.00001045,-0.00002278,-0.00002050,0.00006335,0.00001061,-0.0
 0000389,-0.00000187,-0.00001051,0.00007732,-0.00014557,0.00005120,0.00
 000167,0.00001107,-0.00000053,0.00002145,-0.00000698,0.00001016,-0.000
 00820,-0.00000311,-0.00000917,0.00000268,-0.00000414,-0.00000216,-0.00
 000212,0.00000483,0.00000578,0.00007242,0.00053029,0.00021537,-0.00001
 205,-0.00001266,-0.00003208,0.00070078,0.00086603,-0.00093009,-0.00006
 721,-0.00019336,0.00001321,-0.00014804,0.00005398,-0.00011501,0.000024
 15,0.00000794,-0.00001425,-0.00003722,-0.00006528,0.00001373,0.0000135
 6,0.00002929,0.00001537,-0.00004075,0.00034416,0.00028178,-0.00000757,
 0.00000869,-0.00005432,-0.00004756,-0.00002604,-0.00022861,0.00001634,
 -0.00000922,0.00002309,-0.00000231,0.00002103,-0.00004110,-0.00007151,
 -0.00032469,0.00013947,-0.00001366,0.00000167,-0.00000051,0.00000456,0
 .00000021,0.00000385,-0.00000070,0.00000270,-0.00000353,-0.00000459,-0
 .00000130,0.00000247,-0.00000614,0.00000193,-0.00000309,0.00272607,-0.
 00173153,0.00163504,-0.00082465,0.00054701,-0.00019208,-0.00219117,0.0
 0068854,0.00063537,-0.00043640,-0.00162373,-0.00341909,-0.00023609,-0.
 00024902,0.00030319,0.00003751,0.00001929,-0.00002795,0.00020045,0.000
 33703,-0.00043971,-0.10913454,-0.03841273,-0.04018862,0.08248597,0.033
 07384,0.03481304,0.00000665,-0.00000386,-0.00000812,-0.00000122,-0.000
 03505,-0.00001254,-0.00001475,0.00002669,0.00000060,0.00001218,0.00000
 307,0.00000681,0.00000314,-0.00001404,-0.00000222,-0.00000825,-0.00001
 157,-0.00000034,0.00000142,0.00001376,-0.00000356,0.00003261,-0.000023
 29,-0.00002697,0.00002972,0.00004762,-0.00000343,-0.00000323,-0.000024
 23,0.00001184,-0.00008922,-0.00004167,0.00000820,0.00002151,0.00004945
 ,0.00001747,-0.00003392,-0.00001006,0.00000269,0.00000879,-0.00000027,
 -0.00002375,0.00000979,0.00003202,0.00000895,0.00000733,0.00000086,0.0
 0001586,0.00001181,-0.00000374,0.00001556,0.00000143,0.00010260,-0.000
 02024,0.00000533,0.00002353,-0.00001043,-0.00007899,0.00008439,0.00019
 216,0.00002665,-0.00003820,-0.00001529,0.00007352,0.00007112,0.0000457
 1,0.00002279,-0.00001354,-0.00000811,-0.00025352,0.00031438,-0.0000331
 3,0.00001363,-0.00022626,-0.00019455,0.00001265,-0.00005776,-0.0000245
 8,0.00000173,-0.00001878,0.00004000,0.00011734,0.00010633,-0.00001540,
 0.00012577,-0.00003264,0.00013583,0.00003104,0.00011985,-0.00011328,0.
 00006640,-0.00000091,0.00000738,0.00003964,0.00006112,-0.00007295,-0.0
 0001024,-0.00000180,-0.00004952,-0.00003567,-0.00031604,0.00017686,-0.
 00001484,-0.00004303,-0.00000445,-0.00057243,-0.00012323,-0.00010002,0
 .00044258,-0.00029195,0.00010496,-0.00249867,0.00091168,-0.00070490,0.
 00011503,-0.00011227,0.00006698,0.00069548,-0.00068436,-0.00017373,-0.
 00070792,-0.00256035,0.00081239,-0.00010480,-0.00009996,-0.00005575,0.
 00015679,-0.00050838,0.00022124,0.00016451,-0.00019624,-0.00001561,-0.
 00022845,0.00190097,-0.00079342,0.00020227,-0.00007819,0.00010517,0.00
 000149,-0.00004854,0.00005795,0.00009219,-0.00005676,0.00003300,-0.000
 68523,0.00094087,-0.00008523,0.00000886,-0.00008561,0.00001901,-0.0001
 6542,0.00013475,-0.00011246,0.00001859,-0.00000007,0.00002438,0.000034
 00,-0.00001034,-0.00000007,0.00001326,-0.00004572,-0.00001206,0.000228
 42,0.00057137,0.00064330,-0.00012490,0.00028181,-0.00008513,0.00049920
 ,0.00013701,-0.00164080,-0.00006026,-0.00054624,0.00006222,-0.00029729
 ,0.00030439,0.00022521,0.00003003,-0.00013464,0.00010590,0.00004275,-0
 .00008349,-0.00005006,-0.00004762,0.00016154,-0.00004687,-0.00070938,-
 0.00067212,-0.00037931,-0.00011517,-0.00041177,0.00019260,0.00200818,0
 .00256628,-0.00099101,-0.00000505,0.00010761,0.00009511,0.00008361,0.0
 0002535,0.00015566,-0.00019709,0.00009073,0.00010084,0.00002360,0.0000
 1766,0.00000623,-0.00000693,-0.00001737,-0.00003458,-0.00001257,-0.000
 01858,0.00001677,0.00004692,0.00000929,-0.00003094,0.00003830,0.000005
 33,0.00000807,0.00922042,-0.01291922,0.02149244,0.00401756,0.00271600,
 -0.00779802,-0.00799198,0.00512050,-0.00416392,-0.00806399,-0.00486199
 ,-0.02158437,-0.00009865,0.00105820,-0.00066992,0.00008313,-0.00023838
 ,0.00034919,-0.00015889,-0.00096152,0.00098155,-0.11070986,0.05022262,
 0.06177889,-0.02511806,0.02399640,0.02671395,0.14027441,0.00004132,-0.
 00000162,-0.00000519,-0.00005677,0.00000399,0.00000055,0.00000503,-0.0
 0003634,-0.00000994,0.00001516,0.00001217,0.00000893,-0.00001707,0.000
 01042,-0.00000266,0.00002061,0.00004745,0.00001807,0.00001873,-0.00000
 208,-0.00000063,-0.00004781,0.00002722,0.00002933,-0.00001520,-0.00005
 053,-0.00000110,-0.00000337,0.00003188,0.00001109,0.00008778,0.0000555
 7,-0.00000740,-0.00003275,-0.00005302,-0.00000941,0.00003657,0.0000110
 0,-0.00001140,-0.00000459,-0.00000518,0.00001458,-0.00001355,-0.000029
 33,-0.00000453,-0.00000460,-0.00000262,-0.00001073,-0.00000593,0.00001
 890,-0.00002962,0.00005925,-0.00001338,-0.00011565,0.00011351,-0.00001
 763,-0.00001457,0.00005952,-0.00018069,0.00007477,-0.00000724,0.000035
 96,0.00004712,0.00009832,-0.00004071,0.00009976,0.00002112,0.00004001,
 -0.00000509,0.00005129,0.00004324,-0.00028686,-0.00018893,0.00017314,-
 0.00000252,-0.00003552,0.00006527,0.00002874,-0.00001702,0.00001077,-0
 .00004162,-0.00011203,-0.00012507,0.00001731,-0.00012183,0.00000774,-0
 .00013736,-0.00005173,-0.00014150,0.00009806,-0.00006560,0.00000756,-0
 .00000220,-0.00005879,-0.00010601,0.00005070,-0.00000776,0.00001595,0.
 00007157,0.00008692,0.00030173,-0.00022027,0.00002054,0.00004901,0.000
 02724,0.00056928,0.00019827,0.00011831,-0.00082386,0.00070972,-0.00034
 881,0.00268058,-0.00070075,0.00118444,-0.00016081,0.00016678,-0.000078
 51,-0.00068371,-0.00070251,0.00042119,-0.00164407,0.00078137,0.0013289
 5,0.00022982,0.00055748,0.00009868,0.00014329,0.00018900,0.00000596,-0
 .00018654,0.00017790,0.00003396,0.00068669,-0.00181262,0.00021038,-0.0
 0008719,-0.00002774,-0.00003393,-0.00003265,0.00001231,-0.00008783,-0.
 00010580,0.00006522,-0.00000693,0.00054927,-0.00075218,0.00000516,0.00
 000085,0.00004966,-0.00002927,0.00009763,-0.00021400,0.00013329,0.0000
 0743,0.00000698,-0.00001708,-0.00006185,0.00004482,0.00000169,0.000003
 76,0.00002500,0.00000775,-0.00018923,-0.00075424,-0.00054865,0.0000794
 6,-0.00008102,0.00001369,0.00030422,-0.00041395,0.00222740,0.00006094,
 0.00066454,-0.00005636,0.00009975,-0.00032225,0.00002019,-0.00001237,0
 .00009275,-0.00005785,-0.00000850,0.00008884,0.00003142,0.00003057,-0.
 00005843,0.00002249,-0.00031015,-0.00016728,0.00072406,0.00005500,0.00
 019728,-0.00008968,-0.00026992,-0.00231434,-0.00043659,0.00007262,0.00
 019040,-0.00019979,-0.00020599,-0.00010262,-0.00015434,0.00016288,-0.0
 0038979,-0.00006976,0.00001376,-0.00003017,-0.00000756,-0.00000481,0.0
 0002464,0.00002956,0.00001408,0.00001799,-0.00001250,-0.00004433,-0.00
 000872,0.00003066,-0.00003154,-0.00001233,-0.00000381,-0.01053965,0.01
 088606,-0.01797701,-0.00303525,-0.00155537,0.00920923,0.00572413,-0.00
 573635,0.00394924,-0.00442020,-0.00941315,0.01844304,-0.00017031,-0.00
 137209,0.00051424,-0.00004752,0.00029059,-0.00027796,0.00031891,0.0012
 8749,-0.00112568,0.08614461,-0.12958040,-0.12070195,-0.00918776,0.0071
 0923,0.00638366,-0.06565311,0.13252467,-0.00000331,-0.00000606,0.00001
 525,-0.00000845,0.00004507,-0.00000688,0.00001241,-0.00002957,-0.00000
 094,-0.00000607,0.00000026,-0.00000783,-0.00000845,0.00001877,-0.00000
 445,0.00000166,0.00000917,0.00000713,0.00000986,-0.00000778,-0.0000022
 9,-0.00002710,0.00002376,0.00002818,-0.00002445,-0.00004612,0.00000080
 ,-0.00000090,0.00002633,-0.00000841,0.00008015,0.00005080,-0.00001199,
 -0.00001713,-0.00005022,-0.00000784,0.00003540,0.00001040,-0.00000714,
 -0.00000424,-0.00000207,0.00001917,-0.00001010,-0.00003147,-0.00000305
 ,-0.00001064,-0.00000126,-0.00001650,0.00000382,-0.00001165,-0.0000060
 1,0.00001083,-0.00001608,-0.00013362,0.00002268,0.00000750,-0.00002694
 ,-0.00009468,-0.00028916,0.00017411,-0.00005827,0.00003015,0.00001724,
 -0.00011446,-0.00008563,-0.00007730,-0.00001960,0.00001908,0.00000135,
 0.00035443,-0.00029452,0.00003159,-0.00014774,0.00014046,0.00008760,0.
 00000701,0.00008575,-0.00000787,-0.00000245,0.00000314,-0.00001821,-0.
 00012331,-0.00010543,-0.00002143,-0.00016600,0.00004637,-0.00018011,-0
 .00007261,-0.00014511,0.00007642,-0.00006845,0.00000586,-0.00000599,-0
 .00000061,-0.00010486,0.00010052,0.00002199,0.00001566,0.00005302,0.00
 006093,0.00027642,-0.00027493,-0.00000304,0.00007099,0.00000141,0.0007
 8984,0.00017875,0.00017557,-0.00136145,0.00076375,-0.00051690,0.003308
 31,-0.00090281,0.00210373,-0.00042813,0.00035699,-0.00024544,-0.000719
 96,0.00029537,0.00004198,0.00106931,0.00239859,0.00026770,0.00023801,0
 .00039313,0.00007057,-0.00019452,0.00067178,-0.00021673,-0.00012917,0.
 00016596,-0.00005571,0.00038963,-0.00230239,0.00130621,-0.00035240,0.0
 0029484,-0.00023261,-0.00002182,0.00005682,0.00008498,-0.00011742,0.00
 008142,-0.00007172,0.00089464,-0.00123521,0.00010345,-0.00000670,0.000
 09429,-0.00004776,0.00015048,-0.00017621,0.00008978,-0.00003504,0.0000
 2126,-0.00004348,-0.00002881,0.00001122,0.00000252,-0.00000082,0.00002
 945,0.00001875,0.00012302,-0.00026005,-0.00058805,0.00007321,-0.000600
 59,0.00012889,-0.00096704,0.00190639,0.00097507,0.00004304,0.00050451,
 -0.00007036,0.00015778,-0.00028961,-0.00030191,0.00000031,0.00015134,-
 0.00011774,-0.00006952,0.00001694,0.00005887,0.00005049,-0.00013125,0.
 00006141,0.00059929,0.00063173,0.00079641,0.00011444,0.00034138,-0.000
 25520,-0.00169239,-0.00265810,0.00067493,-0.00000371,-0.00007189,-0.00
 015393,0.00008715,-0.00025457,-0.00034630,0.00013903,-0.00017655,-0.00
 011368,-0.00001957,-0.00001890,-0.00000746,0.00000582,0.00002293,0.000
 03171,0.00000981,0.00002101,-0.00001883,-0.00004580,-0.00000980,0.0000
 2871,-0.00004130,-0.00000676,-0.00000957,0.00034549,0.00498991,-0.0253
 7000,-0.00502678,-0.00148309,0.00787521,0.00446843,-0.00385025,0.00593
 558,-0.01484011,0.01346961,0.00894543,-0.00041410,-0.00185980,0.001268
 13,0.00000208,0.00029016,-0.00039634,0.00062969,0.00202918,-0.00203182
 ,0.09731699,-0.11635521,-0.15592029,-0.00923094,0.00530126,0.00737098,
 -0.07488790,0.09749414,0.14893115\\-0.00000363,-0.00000081,-0.00000167
 ,-0.00000118,0.00000872,0.00000456,-0.00000003,0.00000030,0.00000065,-
 0.00000015,-0.00000070,-0.00000069,-0.00000110,-0.00000157,0.00000145,
 0.00000043,-0.00000135,0.00000078,0.00000083,-0.00000100,0.00000127,0.
 00000067,-0.00000112,-0.00000031,-0.00000045,0.00000184,0.00000032,0.0
 0000102,-0.00000374,0.00000023,0.00000339,-0.00000072,-0.00000302,-0.0
 0000109,-0.00000083,0.00000060,-0.00000046,0.00000042,-0.00000015,0.,-
 0.00000003,-0.00000038,-0.00000036,0.00000021,-0.00000022,0.00000004,0
 .00000055,-0.00000035,0.00000037,-0.00000543,0.00000112,0.00000111,-0.
 00000024,-0.00000020,-0.00000342,0.00000242,-0.00000083,0.00000247,0.0
 0000374,-0.00000378,0.00000009,0.00000143,0.00000164,0.00000132,0.0000
 0278,-0.00000040,-0.00000066,0.00000111,0.00000069,0.00000790,-0.00000
 588,0.00000054,0.00000077,-0.00000046,0.00000193,-0.00000065,0.0000000
 4,0.00000029,-0.00000252,-0.00000178,-0.00000663,-0.00000111,-0.000000
 60,0.00000224,0.00000089,0.00000072,0.00000104,0.00000211,0.00000082,-
 0.00000053,0.00000017,0.00000004,-0.00000004,0.00000323,0.00000102,-0.
 00000131,0.00000117,-0.00000008,-0.00000035,0.00000156,-0.00000029,0.0
 0000014,0.00000022,0.00000017,-0.00000023,0.00000047,-0.00000171,0.000
 00023,0.00000504,-0.00000072,0.00000390,-0.00001547,-0.00000003,-0.000
 01065,-0.00000116,-0.00000261,0.00000018,0.00000454,-0.00000776,0.0000
 0545,-0.00000441,-0.00000043,-0.00000181,-0.00000524,0.00000356,-0.000
 00409,0.00000083,0.00000346,-0.00000244,-0.00000033,0.00000062,-0.0000
 0024,-0.00000351,-0.00000708,0.00000515,-0.00000045,-0.00000062,-0.000
 00013,-0.00000182,-0.00000742,-0.00000122,-0.00000051,0.00000156,-0.00
 000051,0.00000198,0.00001407,-0.00000205,0.00000193,-0.00000223,-0.000
 00030,-0.00000108,-0.00000088,-0.00000162,0.00000054,-0.00000028,0.000
 00024,-0.00000103,-0.00000117,-0.00000032,-0.00000051,-0.00000023,-0.0
 0000004,0.00000102,0.00000817,0.00000398,-0.00000095,-0.00000318,-0.00
 000291,-0.00000525,-0.00000574,-0.00000259,-0.00000276,-0.00000406,-0.
 00000076,0.00000496,-0.00000006,0.00000109,0.00000192,0.00000077,0.000
 00062,-0.00000100,0.00000125,-0.00000016,-0.00000144,-0.00000192,0.000
 00121,0.00000436,0.00000099,0.00000482,-0.00000089,0.00000201,-0.00000
 053,-0.00000926,0.00000178,0.00000170,0.00000012,-0.00000234,0.0000004
 9,0.00000518,0.00000397,0.00000482,-0.00000419,0.00000678,-0.00000148,
 0.00000152,-0.00000229,0.00000015,0.00000037,0.00000466,-0.00000008,0.
 00000035,0.00000025,-0.00000073,-0.00000054,0.00000026,0.00000073,-0.0
 0000070,0.00000015,-0.00000024,0.00001497,-0.00001555,0.00003458,-0.00
 000290,-0.00000734,-0.00000984,0.00000050,0.00001854,-0.00003706,-0.00
 000408,0.00002764,-0.00001991,-0.00002605,0.00005854,-0.00003838,0.000
 02550,-0.00002387,0.00000078,-0.00000131,-0.00004176,0.00006578,0.0000
 0911,0.00000781,0.00000846,-0.00000230,-0.00000088,-0.00000370,0.00000
 100,-0.00002441,0.00000102\\\@


 CONFIDENCE IS WHAT YOU FEEL BEFORE YOU FULLY
 COMPREHEND THE SITUATION.
 Job cpu time:      14 days  8 hours 51 minutes 40.5 seconds.
 Elapsed time:       0 days 17 hours 27 minutes 41.0 seconds.
 File lengths (MBytes):  RWF=  25702 Int=      0 D2E=      0 Chk=    151 Scr=      1
 Normal termination of Gaussian 16 at Sun Apr 21 10:02:12 2024.
