 Entering Gaussian System, Link 0=g16
 Input=4water-ofreq.gjf
 Output=4water-ofreq.log
 Initial command:
 /packages/apps/gaussian/g16/g16/l1.exe "/scratch/mdturne9/2-5-methyl/ofreq/Gau-2152651.inp" -scrdir="/scratch/mdturne9/2-5-methyl/ofreq/"
 Entering Link 1 = /packages/apps/gaussian/g16/g16/l1.exe PID=   2152652.
  
 Copyright (c) 1988,1990,1992,1993,1995,1998,2003,2009,2016,
            Gaussian, Inc.  All Rights Reserved.
  
 This is part of the Gaussian(R) 16 program.  It is based on
 the Gaussian(R) 09 system (copyright 2009, Gaussian, Inc.),
 the Gaussian(R) 03 system (copyright 2003, Gaussian, Inc.),
 the Gaussian(R) 98 system (copyright 1998, Gaussian, Inc.),
 the Gaussian(R) 94 system (copyright 1995, Gaussian, Inc.),
 the Gaussian 92(TM) system (copyright 1992, Gaussian, Inc.),
 the Gaussian 90(TM) system (copyright 1990, Gaussian, Inc.),
 the Gaussian 88(TM) system (copyright 1988, Gaussian, Inc.),
 the Gaussian 86(TM) system (copyright 1986, Carnegie Mellon
 University), and the Gaussian 82(TM) system (copyright 1983,
 Carnegie Mellon University). Gaussian is a federally registered
 trademark of Gaussian, Inc.
  
 This software contains proprietary and confidential information,
 including trade secrets, belonging to Gaussian, Inc.
  
 This software is provided under written license and may be
 used, copied, transmitted, or stored only in accord with that
 written license.
  
 The following legend is applicable only to US Government
 contracts under FAR:
  
                    RESTRICTED RIGHTS LEGEND
  
 Use, reproduction and disclosure by the US Government is
 subject to restrictions as set forth in subparagraphs (a)
 and (c) of the Commercial Computer Software - Restricted
 Rights clause in FAR 52.227-19.
  
 Gaussian, Inc.
 340 Quinnipiac St., Bldg. 40, Wallingford CT 06492
  
  
 ---------------------------------------------------------------
 Warning -- This program may not be used in any manner that
 competes with the business of Gaussian, Inc. or will provide
 assistance to any competitor of Gaussian, Inc.  The licensee
 of this program is prohibited from giving any competitor of
 Gaussian, Inc. access to this program.  By using this program,
 the user acknowledges that Gaussian, Inc. is engaged in the
 business of creating and licensing software in the field of
 computational chemistry and represents and warrants to the
 licensee that it is not a competitor of Gaussian, Inc. and that
 it will not use this program in any manner prohibited above.
 ---------------------------------------------------------------
  

 Cite this work as:
 Gaussian 16, Revision A.03,
 M. J. Frisch, G. W. Trucks, H. B. Schlegel, G. E. Scuseria, 
 M. A. Robb, J. R. Cheeseman, G. Scalmani, V. Barone, 
 G. A. Petersson, H. Nakatsuji, X. Li, M. Caricato, A. V. Marenich, 
 J. Bloino, B. G. Janesko, R. Gomperts, B. Mennucci, H. P. Hratchian, 
 J. V. Ortiz, A. F. Izmaylov, J. L. Sonnenberg, D. Williams-Young, 
 F. Ding, F. Lipparini, F. Egidi, J. Goings, B. Peng, A. Petrone, 
 T. Henderson, D. Ranasinghe, V. G. Zakrzewski, J. Gao, N. Rega, 
 G. Zheng, W. Liang, M. Hada, M. Ehara, K. Toyota, R. Fukuda, 
 J. Hasegawa, M. Ishida, T. Nakajima, Y. Honda, O. Kitao, H. Nakai, 
 T. Vreven, K. Throssell, J. A. Montgomery, Jr., J. E. Peralta, 
 F. Ogliaro, M. J. Bearpark, J. J. Heyd, E. N. Brothers, K. N. Kudin, 
 V. N. Staroverov, T. A. Keith, R. Kobayashi, J. Normand, 
 K. Raghavachari, A. P. Rendell, J. C. Burant, S. S. Iyengar, 
 J. Tomasi, M. Cossi, J. M. Millam, M. Klene, C. Adamo, R. Cammi, 
 J. W. Ochterski, R. L. Martin, K. Morokuma, O. Farkas, 
 J. B. Foresman, and D. J. Fox, Gaussian, Inc., Wallingford CT, 2016.
 
 ******************************************
 Gaussian 16:  ES64L-G16RevA.03 25-Dec-2016
                20-Apr-2024 
 ******************************************
 %nprocshared=20
 Will use up to   20 processors via shared memory.
 %mem=14GB
 %chk=4water-ofreq.chk
 ---------------------------------
 #p opt freq wb97xd/6-311+g(2d,2p)
 ---------------------------------
 1/18=20,19=15,26=3,38=1/1,3;
 2/9=110,12=2,17=6,18=5,40=1/2;
 3/5=4,6=6,7=212,11=2,25=1,30=1,71=1,74=-58/1,2,3;
 4//1;
 5/5=2,38=5/2;
 6/7=2,8=2,9=2,10=2,28=1/1;
 7//1,2,3,16;
 1/18=20,19=15,26=3/3(2);
 2/9=110/2;
 99//99;
 2/9=110/2;
 3/5=4,6=6,7=212,11=2,25=1,30=1,71=1,74=-58/1,2,3;
 4/5=5,16=3,69=1/1;
 5/5=2,38=5/2;
 7//1,2,3,16;
 1/18=20,19=15,26=3/3(-5);
 2/9=110/2;
 6/7=2,8=2,9=2,10=2,19=2,28=1/1;
 99/9=1/99;
 Leave Link    1 at Sat Apr 20 11:32:41 2024, MaxMem=  1879048192 cpu:               2.8 elap:               0.2
 (Enter /packages/apps/gaussian/g16/g16/l101.exe)
 --------
 Required
 --------
 Symbolic Z-matrix:
 Charge =  0 Multiplicity = 1
 C                    0    -4.01389  -3.48472  -2.53604  H 
 C                    0    -3.91808  -2.90595  -1.12362  H 
 H                    0    -3.55076  -4.46997  -2.59052  H 
 H                    0    -5.05732  -3.57947  -2.83946  H 
 H                    0    -3.51602  -2.84028  -3.26218  H 
 C                    0    -4.54703  -1.50255  -1.05438  H 
 H                    0    -4.48048  -3.5611   -0.4517   H 
 C                    0    -4.71459  -0.98115   0.37389  H 
 H                    0    -5.64439  -1.37093   0.79566  H 
 H                    0    -3.91488  -1.37318   1.00538  H 
 C                    0    -4.72086   0.54774   0.49254  H 
 C                    0    -5.07655   0.97425   1.92605  H 
 C                    0    -5.19473   2.48172   2.115    H 
 H                    0    -5.49581   2.72481   3.13395  H 
 H                    0    -4.24571   2.98101   1.91726  H 
 H                    0    -5.93929   2.9036    1.43658  H 
 C                    0    -2.49045  -2.84844  -0.61862  H 
 C                    0    -1.51738  -2.14185  -1.32026  H 
 C                    0    -2.13323  -3.40618   0.60469  H 
 C                    0    -0.24601  -1.95677  -0.80688  H 
 H                    0    -1.7624   -1.67632  -2.26621  H 
 C                    0    -0.85874  -3.22949   1.12411  H 
 H                    0    -2.87109  -3.95624   1.17593  H 
 C                    0     0.09852  -2.49321   0.43235  H 
 H                    0     0.45958  -1.34385  -1.35602  H 
 H                    0    -0.61995  -3.63825   2.0989   H 
 C                    0    -3.40323   1.15974   0.05641  H 
 C                    0    -3.36897   2.1874   -0.88059  H 
 C                    0    -2.19241   0.72925   0.5966   H 
 C                    0    -2.16941   2.77685  -1.25295  H 
 H                    0    -4.29355   2.52906  -1.32926  H 
 C                    0    -0.9917    1.30789   0.22479  H 
 H                    0    -2.17314  -0.08774   1.30668  H 
 C                    0    -0.96745   2.35356  -0.69602  H 
 H                    0    -2.17134   3.56264  -1.99955  H 
 H                    0    -0.05591   0.94413   0.6305   H 
 C                    0     0.33893   2.96174  -1.11494  H 
 H                    0     1.13786   2.22742  -1.10262  H 
 H                    0     0.26895   3.38501  -2.11585  H 
 C                    0     1.4209   -2.1866    1.07353  H 
 H                    0     1.72009  -1.15009   0.90029  H 
 H                    0     1.36486  -2.33309   2.14986  H 
 C                    0     2.18641   4.48574  -0.72675  H 
 H                    0     2.53373   5.33601  -0.14375  H 
 H                    0     2.85181   3.62049  -0.59798  H 
 H                    0     2.10072   4.76426  -1.77487  H 
 C                    0     0.95996   3.65064   1.19178  H 
 H                    0    -0.03315   3.4814    1.59735  H 
 H                    0     1.53588   2.72188   1.19982  H 
 H                    0     1.46266   4.43915   1.74632  H 
 C                    0    -0.09026   5.25847  -0.30399  H 
 H                    0    -0.1405    5.60555  -1.33349  H 
 H                    0    -1.07712   4.95414   0.03323  H 
 H                    0     0.29341   6.05054   0.33421  H 
 C                    0     3.721    -2.78439   1.56564  H 
 H                    0     4.60667  -3.29541   1.19612  H 
 H                    0     3.89749  -1.70574   1.60126  H 
 H                    0     3.42751  -3.17285   2.53793  H 
 C                    0     2.25992  -4.46902   0.58293  H 
 H                    0     1.90806  -4.76379   1.5687   H 
 H                    0     1.47851  -4.64324  -0.15079  H 
 H                    0     3.15317  -5.03176   0.32359  H 
 C                    0     3.04446  -2.59209  -0.75284  H 
 H                    0     2.23647  -2.74854  -1.45973  H 
 H                    0     3.30463  -1.54057  -0.70507  H 
 H                    0     3.92211  -3.16945  -1.03059  H 
 N                    0     0.82978   4.09986  -0.22845  H 
 N                    0     2.60039  -3.02747   0.60468  H 
 H                    0    -5.51821  -1.51931  -1.55551  H 
 H                    0    -3.91774  -0.81757  -1.62848  H 
 H                    0    -4.32106   0.57558   2.60899  H 
 H                    0    -6.02115   0.49763   2.19942  H 
 H                    0    -5.49883   0.93884  -0.17194  H 
 C                    0     3.41193   1.01201   0.48666  H 
 O                    0     4.21173   0.1504    0.98888  H 
 O                    0     3.81136   1.98091  -0.23048  H 
 O                    0     2.1246    0.85857   0.69312  H 
 O                    0     4.48578   0.58317  -2.47358  L 
 H                    0     4.3795    1.21952  -1.73543  L 
 H                    0     5.0421   -0.10122  -2.07814  L 
 O                    0     1.7316    0.16303  -2.02938  L 
 H                    0     2.64073   0.25441  -2.36556  L 
 H                    0     1.8186    0.38728  -1.08563  L 
 O                    0     2.04265   0.05165   3.31109  L 
 H                    0     2.98172   0.06211   3.49849  L 
 H                    0     2.02008   0.35043   2.37569  L 
 O                    0     5.92193  -1.07996  -0.55618  L 
 H                    0     5.36381  -0.52263   0.05487  L 
 H                    0     6.79833  -0.70053  -0.51262  L 
 
 Add virtual bond connecting atoms H88        and O75        Dist= 3.08D+00.
 Add virtual bond connecting atoms H86        and O77        Dist= 3.33D+00.
 Add virtual bond connecting atoms H79        and O76        Dist= 3.36D+00.
 Add virtual bond connecting atoms H82        and O78        Dist= 3.55D+00.
 Add virtual bond connecting atoms H83        and O77        Dist= 3.53D+00.
 Add virtual bond connecting atoms O75        and H57        Dist= 3.74D+00.
 Add virtual bond connecting atoms O76        and H45        Dist= 3.66D+00.
 Add virtual bond connecting atoms O77        and H41        Dist= 3.89D+00.
 Add virtual bond connecting atoms O77        and H49        Dist= 3.81D+00.
 Add virtual bond connecting atoms O81        and H25        Dist= 3.94D+00.
 ITRead=  0  0  0  0  0  0  0  0  0  0  0  0  0  0  0  0  0  0  0  0
 ITRead=  0  0  0  0  0  0  0  0  0  0  0  0  0  0  0  0  0  0  0  0
 ITRead=  0  0  0  0  0  0  0  0  0  0  0  0  0  0  0  0  0  0  0  0
 ITRead=  0  0  0  0  0  0  0  0  0  0  0  0  0  0  0  0  0  0  0  0
 ITRead=  0  0  0  0  0  0  0  0  0
 MicOpt= -1 -1 -1 -1 -1 -1 -1 -1 -1 -1 -1 -1 -1 -1 -1 -1 -1 -1 -1 -1
 MicOpt= -1 -1 -1 -1 -1 -1 -1 -1 -1 -1 -1 -1 -1 -1 -1 -1 -1 -1 -1 -1
 MicOpt= -1 -1 -1 -1 -1 -1 -1 -1 -1 -1 -1 -1 -1 -1 -1 -1 -1 -1 -1 -1
 MicOpt= -1 -1 -1 -1 -1 -1 -1 -1 -1 -1 -1 -1 -1 -1 -1 -1 -1 -1 -1 -1
 MicOpt= -1 -1 -1 -1 -1 -1 -1 -1 -1
 NAtoms=     89 NQM=       89 NQMF=       0 NMMI=      0 NMMIF=      0
                NMic=       0 NMicF=      0.
                    Isotopes and Nuclear Properties:
 (Nuclear quadrupole moments (NQMom) in fm**2, nuclear magnetic moments (NMagM)
  in nuclear magnetons)

  Atom         1           2           3           4           5           6           7           8           9          10
 IAtWgt=          12          12           1           1           1          12           1          12           1           1
 AtmWgt=  12.0000000  12.0000000   1.0078250   1.0078250   1.0078250  12.0000000   1.0078250  12.0000000   1.0078250   1.0078250
 NucSpn=           0           0           1           1           1           0           1           0           1           1
 AtZEff=  -0.0000000  -0.0000000  -0.0000000  -0.0000000  -0.0000000  -0.0000000  -0.0000000  -0.0000000  -0.0000000  -0.0000000
 NQMom=    0.0000000   0.0000000   0.0000000   0.0000000   0.0000000   0.0000000   0.0000000   0.0000000   0.0000000   0.0000000
 NMagM=    0.0000000   0.0000000   2.7928460   2.7928460   2.7928460   0.0000000   2.7928460   0.0000000   2.7928460   2.7928460
 AtZNuc=   6.0000000   6.0000000   1.0000000   1.0000000   1.0000000   6.0000000   1.0000000   6.0000000   1.0000000   1.0000000

  Atom        11          12          13          14          15          16          17          18          19          20
 IAtWgt=          12          12          12           1           1           1          12          12          12          12
 AtmWgt=  12.0000000  12.0000000  12.0000000   1.0078250   1.0078250   1.0078250  12.0000000  12.0000000  12.0000000  12.0000000
 NucSpn=           0           0           0           1           1           1           0           0           0           0
 AtZEff=  -0.0000000  -0.0000000  -0.0000000  -0.0000000  -0.0000000  -0.0000000  -0.0000000  -0.0000000  -0.0000000  -0.0000000
 NQMom=    0.0000000   0.0000000   0.0000000   0.0000000   0.0000000   0.0000000   0.0000000   0.0000000   0.0000000   0.0000000
 NMagM=    0.0000000   0.0000000   0.0000000   2.7928460   2.7928460   2.7928460   0.0000000   0.0000000   0.0000000   0.0000000
 AtZNuc=   6.0000000   6.0000000   6.0000000   1.0000000   1.0000000   1.0000000   6.0000000   6.0000000   6.0000000   6.0000000

  Atom        21          22          23          24          25          26          27          28          29          30
 IAtWgt=           1          12           1          12           1           1          12          12          12          12
 AtmWgt=   1.0078250  12.0000000   1.0078250  12.0000000   1.0078250   1.0078250  12.0000000  12.0000000  12.0000000  12.0000000
 NucSpn=           1           0           1           0           1           1           0           0           0           0
 AtZEff=  -0.0000000  -0.0000000  -0.0000000  -0.0000000  -0.0000000  -0.0000000  -0.0000000  -0.0000000  -0.0000000  -0.0000000
 NQMom=    0.0000000   0.0000000   0.0000000   0.0000000   0.0000000   0.0000000   0.0000000   0.0000000   0.0000000   0.0000000
 NMagM=    2.7928460   0.0000000   2.7928460   0.0000000   2.7928460   2.7928460   0.0000000   0.0000000   0.0000000   0.0000000
 AtZNuc=   1.0000000   6.0000000   1.0000000   6.0000000   1.0000000   1.0000000   6.0000000   6.0000000   6.0000000   6.0000000

  Atom        31          32          33          34          35          36          37          38          39          40
 IAtWgt=           1          12           1          12           1           1          12           1           1          12
 AtmWgt=   1.0078250  12.0000000   1.0078250  12.0000000   1.0078250   1.0078250  12.0000000   1.0078250   1.0078250  12.0000000
 NucSpn=           1           0           1           0           1           1           0           1           1           0
 AtZEff=  -0.0000000  -0.0000000  -0.0000000  -0.0000000  -0.0000000  -0.0000000  -0.0000000  -0.0000000  -0.0000000  -0.0000000
 NQMom=    0.0000000   0.0000000   0.0000000   0.0000000   0.0000000   0.0000000   0.0000000   0.0000000   0.0000000   0.0000000
 NMagM=    2.7928460   0.0000000   2.7928460   0.0000000   2.7928460   2.7928460   0.0000000   2.7928460   2.7928460   0.0000000
 AtZNuc=   1.0000000   6.0000000   1.0000000   6.0000000   1.0000000   1.0000000   6.0000000   1.0000000   1.0000000   6.0000000

  Atom        41          42          43          44          45          46          47          48          49          50
 IAtWgt=           1           1          12           1           1           1          12           1           1           1
 AtmWgt=   1.0078250   1.0078250  12.0000000   1.0078250   1.0078250   1.0078250  12.0000000   1.0078250   1.0078250   1.0078250
 NucSpn=           1           1           0           1           1           1           0           1           1           1
 AtZEff=  -0.0000000  -0.0000000  -0.0000000  -0.0000000  -0.0000000  -0.0000000  -0.0000000  -0.0000000  -0.0000000  -0.0000000
 NQMom=    0.0000000   0.0000000   0.0000000   0.0000000   0.0000000   0.0000000   0.0000000   0.0000000   0.0000000   0.0000000
 NMagM=    2.7928460   2.7928460   0.0000000   2.7928460   2.7928460   2.7928460   0.0000000   2.7928460   2.7928460   2.7928460
 AtZNuc=   1.0000000   1.0000000   6.0000000   1.0000000   1.0000000   1.0000000   6.0000000   1.0000000   1.0000000   1.0000000

  Atom        51          52          53          54          55          56          57          58          59          60
 IAtWgt=          12           1           1           1          12           1           1           1          12           1
 AtmWgt=  12.0000000   1.0078250   1.0078250   1.0078250  12.0000000   1.0078250   1.0078250   1.0078250  12.0000000   1.0078250
 NucSpn=           0           1           1           1           0           1           1           1           0           1
 AtZEff=  -0.0000000  -0.0000000  -0.0000000  -0.0000000  -0.0000000  -0.0000000  -0.0000000  -0.0000000  -0.0000000  -0.0000000
 NQMom=    0.0000000   0.0000000   0.0000000   0.0000000   0.0000000   0.0000000   0.0000000   0.0000000   0.0000000   0.0000000
 NMagM=    0.0000000   2.7928460   2.7928460   2.7928460   0.0000000   2.7928460   2.7928460   2.7928460   0.0000000   2.7928460
 AtZNuc=   6.0000000   1.0000000   1.0000000   1.0000000   6.0000000   1.0000000   1.0000000   1.0000000   6.0000000   1.0000000

  Atom        61          62          63          64          65          66          67          68          69          70
 IAtWgt=           1           1          12           1           1           1          14          14           1           1
 AtmWgt=   1.0078250   1.0078250  12.0000000   1.0078250   1.0078250   1.0078250  14.0030740  14.0030740   1.0078250   1.0078250
 NucSpn=           1           1           0           1           1           1           2           2           1           1
 AtZEff=  -0.0000000  -0.0000000  -0.0000000  -0.0000000  -0.0000000  -0.0000000  -0.0000000  -0.0000000  -0.0000000  -0.0000000
 NQMom=    0.0000000   0.0000000   0.0000000   0.0000000   0.0000000   0.0000000   2.0440000   2.0440000   0.0000000   0.0000000
 NMagM=    2.7928460   2.7928460   0.0000000   2.7928460   2.7928460   2.7928460   0.4037610   0.4037610   2.7928460   2.7928460
 AtZNuc=   1.0000000   1.0000000   6.0000000   1.0000000   1.0000000   1.0000000   7.0000000   7.0000000   1.0000000   1.0000000

  Atom        71          72          73          74          75          76          77          78          79          80
 IAtWgt=           1           1           1          12          16          16          16          16           1           1
 AtmWgt=   1.0078250   1.0078250   1.0078250  12.0000000  15.9949146  15.9949146  15.9949146  15.9949146   1.0078250   1.0078250
 NucSpn=           1           1           1           0           0           0           0           0           1           1
 AtZEff=  -0.0000000  -0.0000000  -0.0000000  -0.0000000  -0.0000000  -0.0000000  -0.0000000  -0.0000000  -0.0000000  -0.0000000
 NQMom=    0.0000000   0.0000000   0.0000000   0.0000000   0.0000000   0.0000000   0.0000000   0.0000000   0.0000000   0.0000000
 NMagM=    2.7928460   2.7928460   2.7928460   0.0000000   0.0000000   0.0000000   0.0000000   0.0000000   2.7928460   2.7928460
 AtZNuc=   1.0000000   1.0000000   1.0000000   6.0000000   8.0000000   8.0000000   8.0000000   8.0000000   1.0000000   1.0000000

  Atom        81          82          83          84          85          86          87          88          89
 IAtWgt=          16           1           1          16           1           1          16           1           1
 AtmWgt=  15.9949146   1.0078250   1.0078250  15.9949146   1.0078250   1.0078250  15.9949146   1.0078250   1.0078250
 NucSpn=           0           1           1           0           1           1           0           1           1
 AtZEff=  -0.0000000  -0.0000000  -0.0000000  -0.0000000  -0.0000000  -0.0000000  -0.0000000  -0.0000000  -0.0000000
 NQMom=    0.0000000   0.0000000   0.0000000   0.0000000   0.0000000   0.0000000   0.0000000   0.0000000   0.0000000
 NMagM=    0.0000000   2.7928460   2.7928460   0.0000000   2.7928460   2.7928460   0.0000000   2.7928460   2.7928460
 AtZNuc=   8.0000000   1.0000000   1.0000000   8.0000000   1.0000000   1.0000000   8.0000000   1.0000000   1.0000000
 Leave Link  101 at Sat Apr 20 11:32:41 2024, MaxMem=  1879048192 cpu:               4.5 elap:               0.3
 (Enter /packages/apps/gaussian/g16/g16/l103.exe)

 GradGradGradGradGradGradGradGradGradGradGradGradGradGradGradGradGradGrad
 Berny optimization.
 Initialization pass.
                           ----------------------------
                           !    Initial Parameters    !
                           ! (Angstroms and Degrees)  !
 --------------------------                            --------------------------
 ! Name  Definition              Value          Derivative Info.                !
 --------------------------------------------------------------------------------
 ! R1    R(1,2)                  1.5294         estimate D2E/DX2                !
 ! R2    R(1,3)                  1.09           estimate D2E/DX2                !
 ! R3    R(1,4)                  1.0908         estimate D2E/DX2                !
 ! R4    R(1,5)                  1.0911         estimate D2E/DX2                !
 ! R5    R(2,6)                  1.5395         estimate D2E/DX2                !
 ! R6    R(2,7)                  1.0941         estimate D2E/DX2                !
 ! R7    R(2,17)                 1.5154         estimate D2E/DX2                !
 ! R8    R(6,8)                  1.5297         estimate D2E/DX2                !
 ! R9    R(6,69)                 1.093          estimate D2E/DX2                !
 ! R10   R(6,70)                 1.0931         estimate D2E/DX2                !
 ! R11   R(8,9)                  1.0929         estimate D2E/DX2                !
 ! R12   R(8,10)                 1.0918         estimate D2E/DX2                !
 ! R13   R(8,11)                 1.5335         estimate D2E/DX2                !
 ! R14   R(11,12)                1.5373         estimate D2E/DX2                !
 ! R15   R(11,27)                1.5169         estimate D2E/DX2                !
 ! R16   R(11,73)                1.0953         estimate D2E/DX2                !
 ! R17   R(12,13)                1.5239         estimate D2E/DX2                !
 ! R18   R(12,71)                1.0937         estimate D2E/DX2                !
 ! R19   R(12,72)                1.0928         estimate D2E/DX2                !
 ! R20   R(13,14)                1.09           estimate D2E/DX2                !
 ! R21   R(13,15)                1.0904         estimate D2E/DX2                !
 ! R22   R(13,16)                1.0921         estimate D2E/DX2                !
 ! R23   R(17,18)                1.3923         estimate D2E/DX2                !
 ! R24   R(17,19)                1.3911         estimate D2E/DX2                !
 ! R25   R(18,20)                1.3835         estimate D2E/DX2                !
 ! R26   R(18,21)                1.0824         estimate D2E/DX2                !
 ! R27   R(19,22)                1.3876         estimate D2E/DX2                !
 ! R28   R(19,23)                1.0832         estimate D2E/DX2                !
 ! R29   R(20,24)                1.3936         estimate D2E/DX2                !
 ! R30   R(20,25)                1.084          estimate D2E/DX2                !
 ! R31   R(22,24)                1.3918         estimate D2E/DX2                !
 ! R32   R(22,26)                1.0837         estimate D2E/DX2                !
 ! R33   R(24,40)                1.5013         estimate D2E/DX2                !
 ! R34   R(25,81)                2.0838         estimate D2E/DX2                !
 ! R35   R(27,28)                1.3911         estimate D2E/DX2                !
 ! R36   R(27,29)                1.394          estimate D2E/DX2                !
 ! R37   R(28,30)                1.3875         estimate D2E/DX2                !
 ! R38   R(28,31)                1.083          estimate D2E/DX2                !
 ! R39   R(29,32)                1.3838         estimate D2E/DX2                !
 ! R40   R(29,33)                1.0826         estimate D2E/DX2                !
 ! R41   R(30,34)                1.3907         estimate D2E/DX2                !
 ! R42   R(30,35)                1.0839         estimate D2E/DX2                !
 ! R43   R(32,34)                1.3935         estimate D2E/DX2                !
 ! R44   R(32,36)                1.0829         estimate D2E/DX2                !
 ! R45   R(34,37)                1.5007         estimate D2E/DX2                !
 ! R46   R(37,38)                1.0852         estimate D2E/DX2                !
 ! R47   R(37,39)                1.089          estimate D2E/DX2                !
 ! R48   R(37,67)                1.5238         estimate D2E/DX2                !
 ! R49   R(40,41)                1.0926         estimate D2E/DX2                !
 ! R50   R(40,42)                1.0877         estimate D2E/DX2                !
 ! R51   R(40,68)                1.5225         estimate D2E/DX2                !
 ! R52   R(41,77)                2.0594         estimate D2E/DX2                !
 ! R53   R(43,44)                1.0879         estimate D2E/DX2                !
 ! R54   R(43,45)                1.0991         estimate D2E/DX2                !
 ! R55   R(43,46)                1.0879         estimate D2E/DX2                !
 ! R56   R(43,67)                1.4959         estimate D2E/DX2                !
 ! R57   R(45,76)                1.9349         estimate D2E/DX2                !
 ! R58   R(47,48)                1.086          estimate D2E/DX2                !
 ! R59   R(47,49)                1.0929         estimate D2E/DX2                !
 ! R60   R(47,50)                1.0872         estimate D2E/DX2                !
 ! R61   R(47,67)                1.4953         estimate D2E/DX2                !
 ! R62   R(49,77)                2.0187         estimate D2E/DX2                !
 ! R63   R(51,52)                1.0876         estimate D2E/DX2                !
 ! R64   R(51,53)                1.0864         estimate D2E/DX2                !
 ! R65   R(51,54)                1.0871         estimate D2E/DX2                !
 ! R66   R(51,67)                1.4814         estimate D2E/DX2                !
 ! R67   R(55,56)                1.0872         estimate D2E/DX2                !
 ! R68   R(55,57)                1.0936         estimate D2E/DX2                !
 ! R69   R(55,58)                1.0874         estimate D2E/DX2                !
 ! R70   R(55,68)                1.4961         estimate D2E/DX2                !
 ! R71   R(57,75)                1.9796         estimate D2E/DX2                !
 ! R72   R(59,60)                1.0874         estimate D2E/DX2                !
 ! R73   R(59,61)                1.086          estimate D2E/DX2                !
 ! R74   R(59,62)                1.0871         estimate D2E/DX2                !
 ! R75   R(59,68)                1.4814         estimate D2E/DX2                !
 ! R76   R(63,64)                1.0849         estimate D2E/DX2                !
 ! R77   R(63,65)                1.0843         estimate D2E/DX2                !
 ! R78   R(63,66)                1.0866         estimate D2E/DX2                !
 ! R79   R(63,68)                1.4932         estimate D2E/DX2                !
 ! R80   R(74,75)                1.2784         estimate D2E/DX2                !
 ! R81   R(74,76)                1.2699         estimate D2E/DX2                !
 ! R82   R(74,77)                1.3128         estimate D2E/DX2                !
 ! R83   R(75,88)                1.6287         estimate D2E/DX2                !
 ! R84   R(76,79)                1.7797         estimate D2E/DX2                !
 ! R85   R(77,83)                1.8654         estimate D2E/DX2                !
 ! R86   R(77,86)                1.7607         estimate D2E/DX2                !
 ! R87   R(78,79)                0.9804         estimate D2E/DX2                !
 ! R88   R(78,80)                0.9666         estimate D2E/DX2                !
 ! R89   R(78,82)                1.8772         estimate D2E/DX2                !
 ! R90   R(81,82)                0.9736         estimate D2E/DX2                !
 ! R91   R(81,83)                0.9739         estimate D2E/DX2                !
 ! R92   R(84,85)                0.9576         estimate D2E/DX2                !
 ! R93   R(84,86)                0.9822         estimate D2E/DX2                !
 ! R94   R(87,88)                0.9977         estimate D2E/DX2                !
 ! R95   R(87,89)                0.956          estimate D2E/DX2                !
 ! A1    A(2,1,3)              111.1978         estimate D2E/DX2                !
 ! A2    A(2,1,4)              110.4685         estimate D2E/DX2                !
 ! A3    A(2,1,5)              111.2546         estimate D2E/DX2                !
 ! A4    A(3,1,4)              108.3015         estimate D2E/DX2                !
 ! A5    A(3,1,5)              107.8621         estimate D2E/DX2                !
 ! A6    A(4,1,5)              107.6188         estimate D2E/DX2                !
 ! A7    A(1,2,6)              111.1569         estimate D2E/DX2                !
 ! A8    A(1,2,7)              107.96           estimate D2E/DX2                !
 ! A9    A(1,2,17)             112.4043         estimate D2E/DX2                !
 ! A10   A(6,2,7)              107.9541         estimate D2E/DX2                !
 ! A11   A(6,2,17)             109.5911         estimate D2E/DX2                !
 ! A12   A(7,2,17)             107.5983         estimate D2E/DX2                !
 ! A13   A(2,6,8)              113.4208         estimate D2E/DX2                !
 ! A14   A(2,6,69)             109.1733         estimate D2E/DX2                !
 ! A15   A(2,6,70)             108.2066         estimate D2E/DX2                !
 ! A16   A(8,6,69)             109.6337         estimate D2E/DX2                !
 ! A17   A(8,6,70)             109.8685         estimate D2E/DX2                !
 ! A18   A(69,6,70)            106.2812         estimate D2E/DX2                !
 ! A19   A(6,8,9)              109.3885         estimate D2E/DX2                !
 ! A20   A(6,8,10)             109.7208         estimate D2E/DX2                !
 ! A21   A(6,8,11)             114.3636         estimate D2E/DX2                !
 ! A22   A(9,8,10)             105.7773         estimate D2E/DX2                !
 ! A23   A(9,8,11)             108.7991         estimate D2E/DX2                !
 ! A24   A(10,8,11)            108.4348         estimate D2E/DX2                !
 ! A25   A(8,11,12)            110.469          estimate D2E/DX2                !
 ! A26   A(8,11,27)            112.1143         estimate D2E/DX2                !
 ! A27   A(8,11,73)            108.1773         estimate D2E/DX2                !
 ! A28   A(12,11,27)           110.925          estimate D2E/DX2                !
 ! A29   A(12,11,73)           107.5947         estimate D2E/DX2                !
 ! A30   A(27,11,73)           107.3664         estimate D2E/DX2                !
 ! A31   A(11,12,13)           114.0804         estimate D2E/DX2                !
 ! A32   A(11,12,71)           108.7423         estimate D2E/DX2                !
 ! A33   A(11,12,72)           108.1953         estimate D2E/DX2                !
 ! A34   A(13,12,71)           109.6792         estimate D2E/DX2                !
 ! A35   A(13,12,72)           109.4762         estimate D2E/DX2                !
 ! A36   A(71,12,72)           106.3742         estimate D2E/DX2                !
 ! A37   A(12,13,14)           110.9752         estimate D2E/DX2                !
 ! A38   A(12,13,15)           111.2834         estimate D2E/DX2                !
 ! A39   A(12,13,16)           110.9775         estimate D2E/DX2                !
 ! A40   A(14,13,15)           107.928          estimate D2E/DX2                !
 ! A41   A(14,13,16)           107.8342         estimate D2E/DX2                !
 ! A42   A(15,13,16)           107.6885         estimate D2E/DX2                !
 ! A43   A(2,17,18)            120.6465         estimate D2E/DX2                !
 ! A44   A(2,17,19)            121.3156         estimate D2E/DX2                !
 ! A45   A(18,17,19)           117.8509         estimate D2E/DX2                !
 ! A46   A(17,18,20)           121.5425         estimate D2E/DX2                !
 ! A47   A(17,18,21)           120.0326         estimate D2E/DX2                !
 ! A48   A(20,18,21)           118.3442         estimate D2E/DX2                !
 ! A49   A(17,19,22)           120.9307         estimate D2E/DX2                !
 ! A50   A(17,19,23)           119.5005         estimate D2E/DX2                !
 ! A51   A(22,19,23)           119.5326         estimate D2E/DX2                !
 ! A52   A(18,20,24)           120.3737         estimate D2E/DX2                !
 ! A53   A(18,20,25)           119.0646         estimate D2E/DX2                !
 ! A54   A(24,20,25)           120.477          estimate D2E/DX2                !
 ! A55   A(19,22,24)           120.8673         estimate D2E/DX2                !
 ! A56   A(19,22,26)           119.4128         estimate D2E/DX2                !
 ! A57   A(24,22,26)           119.6764         estimate D2E/DX2                !
 ! A58   A(20,24,22)           118.3972         estimate D2E/DX2                !
 ! A59   A(20,24,40)           121.2599         estimate D2E/DX2                !
 ! A60   A(22,24,40)           120.1067         estimate D2E/DX2                !
 ! A61   A(11,27,28)           120.8704         estimate D2E/DX2                !
 ! A62   A(11,27,29)           121.2311         estimate D2E/DX2                !
 ! A63   A(28,27,29)           117.8889         estimate D2E/DX2                !
 ! A64   A(27,28,30)           121.0573         estimate D2E/DX2                !
 ! A65   A(27,28,31)           119.411          estimate D2E/DX2                !
 ! A66   A(30,28,31)           119.5312         estimate D2E/DX2                !
 ! A67   A(27,29,32)           121.3614         estimate D2E/DX2                !
 ! A68   A(27,29,33)           120.1777         estimate D2E/DX2                !
 ! A69   A(32,29,33)           118.4477         estimate D2E/DX2                !
 ! A70   A(28,30,34)           120.694          estimate D2E/DX2                !
 ! A71   A(28,30,35)           119.4263         estimate D2E/DX2                !
 ! A72   A(34,30,35)           119.87           estimate D2E/DX2                !
 ! A73   A(29,32,34)           120.4268         estimate D2E/DX2                !
 ! A74   A(29,32,36)           120.5786         estimate D2E/DX2                !
 ! A75   A(34,32,36)           118.9855         estimate D2E/DX2                !
 ! A76   A(30,34,32)           118.5528         estimate D2E/DX2                !
 ! A77   A(30,34,37)           121.1477         estimate D2E/DX2                !
 ! A78   A(32,34,37)           120.2462         estimate D2E/DX2                !
 ! A79   A(34,37,38)           111.3143         estimate D2E/DX2                !
 ! A80   A(34,37,39)           110.9873         estimate D2E/DX2                !
 ! A81   A(34,37,67)           114.879          estimate D2E/DX2                !
 ! A82   A(38,37,39)           108.7083         estimate D2E/DX2                !
 ! A83   A(38,37,67)           105.1674         estimate D2E/DX2                !
 ! A84   A(39,37,67)           105.3726         estimate D2E/DX2                !
 ! A85   A(24,40,41)           111.5448         estimate D2E/DX2                !
 ! A86   A(24,40,42)           110.4713         estimate D2E/DX2                !
 ! A87   A(24,40,68)           115.9808         estimate D2E/DX2                !
 ! A88   A(41,40,42)           107.3831         estimate D2E/DX2                !
 ! A89   A(41,40,68)           105.2457         estimate D2E/DX2                !
 ! A90   A(42,40,68)           105.6788         estimate D2E/DX2                !
 ! A91   A(44,43,45)           111.053          estimate D2E/DX2                !
 ! A92   A(44,43,46)           109.9598         estimate D2E/DX2                !
 ! A93   A(44,43,67)           108.2181         estimate D2E/DX2                !
 ! A94   A(45,43,46)           111.231          estimate D2E/DX2                !
 ! A95   A(45,43,67)           107.8754         estimate D2E/DX2                !
 ! A96   A(46,43,67)           108.3938         estimate D2E/DX2                !
 ! A97   A(48,47,49)           110.2869         estimate D2E/DX2                !
 ! A98   A(48,47,50)           110.2047         estimate D2E/DX2                !
 ! A99   A(48,47,67)           108.779          estimate D2E/DX2                !
 ! A100  A(49,47,50)           111.6507         estimate D2E/DX2                !
 ! A101  A(49,47,67)           107.9504         estimate D2E/DX2                !
 ! A102  A(50,47,67)           107.8686         estimate D2E/DX2                !
 ! A103  A(47,49,77)           159.4314         estimate D2E/DX2                !
 ! A104  A(52,51,53)           109.9542         estimate D2E/DX2                !
 ! A105  A(52,51,54)           109.8454         estimate D2E/DX2                !
 ! A106  A(52,51,67)           109.0595         estimate D2E/DX2                !
 ! A107  A(53,51,54)           110.0269         estimate D2E/DX2                !
 ! A108  A(53,51,67)           109.2228         estimate D2E/DX2                !
 ! A109  A(54,51,67)           108.7053         estimate D2E/DX2                !
 ! A110  A(56,55,57)           110.0717         estimate D2E/DX2                !
 ! A111  A(56,55,58)           110.8459         estimate D2E/DX2                !
 ! A112  A(56,55,68)           108.3899         estimate D2E/DX2                !
 ! A113  A(57,55,58)           111.5188         estimate D2E/DX2                !
 ! A114  A(57,55,68)           107.5819         estimate D2E/DX2                !
 ! A115  A(58,55,68)           108.3081         estimate D2E/DX2                !
 ! A116  A(55,57,75)           160.1119         estimate D2E/DX2                !
 ! A117  A(60,59,61)           109.6436         estimate D2E/DX2                !
 ! A118  A(60,59,62)           109.9874         estimate D2E/DX2                !
 ! A119  A(60,59,68)           108.9562         estimate D2E/DX2                !
 ! A120  A(61,59,62)           110.3048         estimate D2E/DX2                !
 ! A121  A(61,59,68)           109.3553         estimate D2E/DX2                !
 ! A122  A(62,59,68)           108.5653         estimate D2E/DX2                !
 ! A123  A(64,63,65)           110.3193         estimate D2E/DX2                !
 ! A124  A(64,63,66)           110.9996         estimate D2E/DX2                !
 ! A125  A(64,63,68)           109.198          estimate D2E/DX2                !
 ! A126  A(65,63,66)           109.435          estimate D2E/DX2                !
 ! A127  A(65,63,68)           108.3052         estimate D2E/DX2                !
 ! A128  A(66,63,68)           108.5215         estimate D2E/DX2                !
 ! A129  A(37,67,43)           106.9179         estimate D2E/DX2                !
 ! A130  A(37,67,47)           110.8676         estimate D2E/DX2                !
 ! A131  A(37,67,51)           110.7575         estimate D2E/DX2                !
 ! A132  A(43,67,47)           108.3574         estimate D2E/DX2                !
 ! A133  A(43,67,51)           110.1518         estimate D2E/DX2                !
 ! A134  A(47,67,51)           109.7233         estimate D2E/DX2                !
 ! A135  A(40,68,55)           107.0218         estimate D2E/DX2                !
 ! A136  A(40,68,59)           111.3407         estimate D2E/DX2                !
 ! A137  A(40,68,63)           110.4453         estimate D2E/DX2                !
 ! A138  A(55,68,59)           109.8586         estimate D2E/DX2                !
 ! A139  A(55,68,63)           108.2896         estimate D2E/DX2                !
 ! A140  A(59,68,63)           109.8001         estimate D2E/DX2                !
 ! A141  A(75,74,76)           122.6369         estimate D2E/DX2                !
 ! A142  A(75,74,77)           118.2254         estimate D2E/DX2                !
 ! A143  A(76,74,77)           119.1063         estimate D2E/DX2                !
 ! A144  A(57,75,74)           130.8552         estimate D2E/DX2                !
 ! A145  A(57,75,88)            84.389          estimate D2E/DX2                !
 ! A146  A(74,75,88)           119.7206         estimate D2E/DX2                !
 ! A147  A(45,76,74)           126.7122         estimate D2E/DX2                !
 ! A148  A(45,76,79)           111.1136         estimate D2E/DX2                !
 ! A149  A(74,76,79)           104.5684         estimate D2E/DX2                !
 ! A150  A(41,77,49)           144.8578         estimate D2E/DX2                !
 ! A151  A(41,77,74)           108.8099         estimate D2E/DX2                !
 ! A152  A(41,77,83)            79.4721         estimate D2E/DX2                !
 ! A153  A(41,77,86)            67.0908         estimate D2E/DX2                !
 ! A154  A(49,77,74)           102.5662         estimate D2E/DX2                !
 ! A155  A(49,77,83)           115.1317         estimate D2E/DX2                !
 ! A156  A(49,77,86)            90.5276         estimate D2E/DX2                !
 ! A157  A(74,77,83)            92.3169         estimate D2E/DX2                !
 ! A158  A(74,77,86)           104.0181         estimate D2E/DX2                !
 ! A159  A(83,77,86)           145.9523         estimate D2E/DX2                !
 ! A160  A(79,78,80)           102.354          estimate D2E/DX2                !
 ! A161  A(79,78,82)            87.9255         estimate D2E/DX2                !
 ! A162  A(80,78,82)           114.7185         estimate D2E/DX2                !
 ! A163  A(76,79,78)           161.6224         estimate D2E/DX2                !
 ! A164  A(25,81,82)           138.5453         estimate D2E/DX2                !
 ! A165  A(25,81,83)            84.7159         estimate D2E/DX2                !
 ! A166  A(82,81,83)           103.2717         estimate D2E/DX2                !
 ! A167  A(78,82,81)           162.5719         estimate D2E/DX2                !
 ! A168  A(85,84,86)           101.8628         estimate D2E/DX2                !
 ! A169  A(88,87,89)           105.2602         estimate D2E/DX2                !
 ! A170  L(20,25,81,15,-1)     167.9413         estimate D2E/DX2                !
 ! A171  L(40,41,77,5,-1)      178.9511         estimate D2E/DX2                !
 ! A172  L(43,45,76,1,-1)      174.002          estimate D2E/DX2                !
 ! A173  L(77,83,81,2,-1)      184.4731         estimate D2E/DX2                !
 ! A174  L(77,86,84,2,-1)      183.3595         estimate D2E/DX2                !
 ! A175  L(75,88,87,3,-1)      168.3882         estimate D2E/DX2                !
 ! A176  L(20,25,81,15,-2)     172.522          estimate D2E/DX2                !
 ! A177  L(40,41,77,5,-2)      173.9966         estimate D2E/DX2                !
 ! A178  L(43,45,76,1,-2)      185.8122         estimate D2E/DX2                !
 ! A179  L(77,83,81,2,-2)      180.8957         estimate D2E/DX2                !
 ! A180  L(77,86,84,2,-2)      176.3989         estimate D2E/DX2                !
 ! A181  L(75,88,87,3,-2)      183.546          estimate D2E/DX2                !
 ! D1    D(3,1,2,6)            178.849          estimate D2E/DX2                !
 ! D2    D(3,1,2,7)            -62.9274         estimate D2E/DX2                !
 ! D3    D(3,1,2,17)            55.5889         estimate D2E/DX2                !
 ! D4    D(4,1,2,6)            -60.8684         estimate D2E/DX2                !
 ! D5    D(4,1,2,7)             57.3551         estimate D2E/DX2                !
 ! D6    D(4,1,2,17)           175.8715         estimate D2E/DX2                !
 ! D7    D(5,1,2,6)             58.5937         estimate D2E/DX2                !
 ! D8    D(5,1,2,7)            176.8172         estimate D2E/DX2                !
 ! D9    D(5,1,2,17)           -64.6664         estimate D2E/DX2                !
 ! D10   D(1,2,6,8)            169.3281         estimate D2E/DX2                !
 ! D11   D(1,2,6,69)            46.7602         estimate D2E/DX2                !
 ! D12   D(1,2,6,70)           -68.5061         estimate D2E/DX2                !
 ! D13   D(7,2,6,8)             51.101          estimate D2E/DX2                !
 ! D14   D(7,2,6,69)           -71.4669         estimate D2E/DX2                !
 ! D15   D(7,2,6,70)           173.2668         estimate D2E/DX2                !
 ! D16   D(17,2,6,8)           -65.8143         estimate D2E/DX2                !
 ! D17   D(17,2,6,69)          171.6178         estimate D2E/DX2                !
 ! D18   D(17,2,6,70)           56.3515         estimate D2E/DX2                !
 ! D19   D(1,2,17,18)           57.7994         estimate D2E/DX2                !
 ! D20   D(1,2,17,19)         -127.2772         estimate D2E/DX2                !
 ! D21   D(6,2,17,18)          -66.3328         estimate D2E/DX2                !
 ! D22   D(6,2,17,19)          108.5906         estimate D2E/DX2                !
 ! D23   D(7,2,17,18)          176.5283         estimate D2E/DX2                !
 ! D24   D(7,2,17,19)           -8.5483         estimate D2E/DX2                !
 ! D25   D(2,6,8,9)            -83.8897         estimate D2E/DX2                !
 ! D26   D(2,6,8,10)            31.7277         estimate D2E/DX2                !
 ! D27   D(2,6,8,11)           153.8075         estimate D2E/DX2                !
 ! D28   D(69,6,8,9)            38.4231         estimate D2E/DX2                !
 ! D29   D(69,6,8,10)          154.0405         estimate D2E/DX2                !
 ! D30   D(69,6,8,11)          -83.8798         estimate D2E/DX2                !
 ! D31   D(70,6,8,9)           154.873          estimate D2E/DX2                !
 ! D32   D(70,6,8,10)          -89.5097         estimate D2E/DX2                !
 ! D33   D(70,6,8,11)           32.5701         estimate D2E/DX2                !
 ! D34   D(6,8,11,12)          172.5917         estimate D2E/DX2                !
 ! D35   D(6,8,11,27)          -63.1334         estimate D2E/DX2                !
 ! D36   D(6,8,11,73)           55.0651         estimate D2E/DX2                !
 ! D37   D(9,8,11,12)           49.9681         estimate D2E/DX2                !
 ! D38   D(9,8,11,27)          174.2429         estimate D2E/DX2                !
 ! D39   D(9,8,11,73)          -67.5586         estimate D2E/DX2                !
 ! D40   D(10,8,11,12)         -64.6285         estimate D2E/DX2                !
 ! D41   D(10,8,11,27)          59.6464         estimate D2E/DX2                !
 ! D42   D(10,8,11,73)         177.8449         estimate D2E/DX2                !
 ! D43   D(8,11,12,13)        -176.252          estimate D2E/DX2                !
 ! D44   D(8,11,12,71)          60.9862         estimate D2E/DX2                !
 ! D45   D(8,11,12,72)         -54.1575         estimate D2E/DX2                !
 ! D46   D(27,11,12,13)         58.7938         estimate D2E/DX2                !
 ! D47   D(27,11,12,71)        -63.968          estimate D2E/DX2                !
 ! D48   D(27,11,12,72)       -179.1118         estimate D2E/DX2                !
 ! D49   D(73,11,12,13)        -58.3673         estimate D2E/DX2                !
 ! D50   D(73,11,12,71)        178.8709         estimate D2E/DX2                !
 ! D51   D(73,11,12,72)         63.7272         estimate D2E/DX2                !
 ! D52   D(8,11,27,28)         128.1434         estimate D2E/DX2                !
 ! D53   D(8,11,27,29)         -53.009          estimate D2E/DX2                !
 ! D54   D(12,11,27,28)       -107.8358         estimate D2E/DX2                !
 ! D55   D(12,11,27,29)         71.0118         estimate D2E/DX2                !
 ! D56   D(73,11,27,28)          9.465          estimate D2E/DX2                !
 ! D57   D(73,11,27,29)       -171.6874         estimate D2E/DX2                !
 ! D58   D(11,12,13,14)        177.195          estimate D2E/DX2                !
 ! D59   D(11,12,13,15)        -62.5972         estimate D2E/DX2                !
 ! D60   D(11,12,13,16)         57.3095         estimate D2E/DX2                !
 ! D61   D(71,12,13,14)        -60.5556         estimate D2E/DX2                !
 ! D62   D(71,12,13,15)         59.6523         estimate D2E/DX2                !
 ! D63   D(71,12,13,16)        179.5589         estimate D2E/DX2                !
 ! D64   D(72,12,13,14)         55.8069         estimate D2E/DX2                !
 ! D65   D(72,12,13,15)        176.0148         estimate D2E/DX2                !
 ! D66   D(72,12,13,16)        -64.0786         estimate D2E/DX2                !
 ! D67   D(2,17,18,20)         173.0089         estimate D2E/DX2                !
 ! D68   D(2,17,18,21)          -3.6699         estimate D2E/DX2                !
 ! D69   D(19,17,18,20)         -2.0864         estimate D2E/DX2                !
 ! D70   D(19,17,18,21)       -178.7651         estimate D2E/DX2                !
 ! D71   D(2,17,19,22)        -173.2402         estimate D2E/DX2                !
 ! D72   D(2,17,19,23)           4.5626         estimate D2E/DX2                !
 ! D73   D(18,17,19,22)          1.8204         estimate D2E/DX2                !
 ! D74   D(18,17,19,23)        179.6233         estimate D2E/DX2                !
 ! D75   D(17,18,20,24)          0.7599         estimate D2E/DX2                !
 ! D76   D(17,18,20,25)       -175.9099         estimate D2E/DX2                !
 ! D77   D(21,18,20,24)        177.4929         estimate D2E/DX2                !
 ! D78   D(21,18,20,25)          0.8232         estimate D2E/DX2                !
 ! D79   D(17,19,22,24)         -0.2409         estimate D2E/DX2                !
 ! D80   D(17,19,22,26)        177.352          estimate D2E/DX2                !
 ! D81   D(23,19,22,24)       -178.0431         estimate D2E/DX2                !
 ! D82   D(23,19,22,26)         -0.4501         estimate D2E/DX2                !
 ! D83   D(18,20,24,22)          0.8639         estimate D2E/DX2                !
 ! D84   D(18,20,24,40)       -173.5574         estimate D2E/DX2                !
 ! D85   D(25,20,24,22)        177.4862         estimate D2E/DX2                !
 ! D86   D(25,20,24,40)          3.0649         estimate D2E/DX2                !
 ! D87   D(18,20,81,82)       -128.8975         estimate D2E/DX2                !
 ! D88   D(18,20,81,83)        131.6982         estimate D2E/DX2                !
 ! D89   D(24,20,81,82)         64.3099         estimate D2E/DX2                !
 ! D90   D(24,20,81,83)        -35.0944         estimate D2E/DX2                !
 ! D91   D(19,22,24,20)         -1.1197         estimate D2E/DX2                !
 ! D92   D(19,22,24,40)        173.368          estimate D2E/DX2                !
 ! D93   D(26,22,24,20)       -178.7064         estimate D2E/DX2                !
 ! D94   D(26,22,24,40)         -4.2187         estimate D2E/DX2                !
 ! D95   D(20,24,40,41)         37.7116         estimate D2E/DX2                !
 ! D96   D(20,24,40,42)        157.0681         estimate D2E/DX2                !
 ! D97   D(20,24,40,68)        -82.7456         estimate D2E/DX2                !
 ! D98   D(22,24,40,41)       -136.6154         estimate D2E/DX2                !
 ! D99   D(22,24,40,42)        -17.2589         estimate D2E/DX2                !
 ! D100  D(22,24,40,68)        102.9274         estimate D2E/DX2                !
 ! D101  D(11,27,28,30)        178.0759         estimate D2E/DX2                !
 ! D102  D(11,27,28,31)         -2.2013         estimate D2E/DX2                !
 ! D103  D(29,27,28,30)         -0.8092         estimate D2E/DX2                !
 ! D104  D(29,27,28,31)        178.9136         estimate D2E/DX2                !
 ! D105  D(11,27,29,32)       -178.4043         estimate D2E/DX2                !
 ! D106  D(11,27,29,33)          2.9377         estimate D2E/DX2                !
 ! D107  D(28,27,29,32)          0.4765         estimate D2E/DX2                !
 ! D108  D(28,27,29,33)       -178.1814         estimate D2E/DX2                !
 ! D109  D(27,28,30,34)         -0.0301         estimate D2E/DX2                !
 ! D110  D(27,28,30,35)        178.8336         estimate D2E/DX2                !
 ! D111  D(31,28,30,34)       -179.7525         estimate D2E/DX2                !
 ! D112  D(31,28,30,35)         -0.8889         estimate D2E/DX2                !
 ! D113  D(27,29,32,34)          0.6997         estimate D2E/DX2                !
 ! D114  D(27,29,32,36)       -178.1914         estimate D2E/DX2                !
 ! D115  D(33,29,32,34)        179.3802         estimate D2E/DX2                !
 ! D116  D(33,29,32,36)          0.4891         estimate D2E/DX2                !
 ! D117  D(28,30,34,32)          1.1995         estimate D2E/DX2                !
 ! D118  D(28,30,34,37)        178.5495         estimate D2E/DX2                !
 ! D119  D(35,30,34,32)       -177.6591         estimate D2E/DX2                !
 ! D120  D(35,30,34,37)         -0.3091         estimate D2E/DX2                !
 ! D121  D(29,32,34,30)         -1.5271         estimate D2E/DX2                !
 ! D122  D(29,32,34,37)       -178.9018         estimate D2E/DX2                !
 ! D123  D(36,32,34,30)        177.3815         estimate D2E/DX2                !
 ! D124  D(36,32,34,37)          0.0068         estimate D2E/DX2                !
 ! D125  D(30,34,37,38)       -145.7169         estimate D2E/DX2                !
 ! D126  D(30,34,37,39)        -24.4893         estimate D2E/DX2                !
 ! D127  D(30,34,37,67)         94.9085         estimate D2E/DX2                !
 ! D128  D(32,34,37,38)         31.5886         estimate D2E/DX2                !
 ! D129  D(32,34,37,39)        152.8162         estimate D2E/DX2                !
 ! D130  D(32,34,37,67)        -87.786          estimate D2E/DX2                !
 ! D131  D(34,37,67,43)        174.9786         estimate D2E/DX2                !
 ! D132  D(34,37,67,47)         57.0578         estimate D2E/DX2                !
 ! D133  D(34,37,67,51)        -64.9967         estimate D2E/DX2                !
 ! D134  D(38,37,67,43)         52.2378         estimate D2E/DX2                !
 ! D135  D(38,37,67,47)        -65.683          estimate D2E/DX2                !
 ! D136  D(38,37,67,51)        172.2625         estimate D2E/DX2                !
 ! D137  D(39,37,67,43)        -62.5455         estimate D2E/DX2                !
 ! D138  D(39,37,67,47)        179.5337         estimate D2E/DX2                !
 ! D139  D(39,37,67,51)         57.4791         estimate D2E/DX2                !
 ! D140  D(24,40,77,49)         65.58           estimate D2E/DX2                !
 ! D141  D(24,40,77,74)       -142.7435         estimate D2E/DX2                !
 ! D142  D(24,40,77,83)        -53.8487         estimate D2E/DX2                !
 ! D143  D(24,40,77,86)        120.6076         estimate D2E/DX2                !
 ! D144  D(42,40,77,49)        -53.3998         estimate D2E/DX2                !
 ! D145  D(42,40,77,74)         98.2767         estimate D2E/DX2                !
 ! D146  D(42,40,77,83)       -172.8285         estimate D2E/DX2                !
 ! D147  D(42,40,77,86)          1.6278         estimate D2E/DX2                !
 ! D148  D(68,40,77,49)       -166.2661         estimate D2E/DX2                !
 ! D149  D(68,40,77,74)        -14.5896         estimate D2E/DX2                !
 ! D150  D(68,40,77,83)         74.3052         estimate D2E/DX2                !
 ! D151  D(68,40,77,86)       -111.2385         estimate D2E/DX2                !
 ! D152  D(24,40,68,55)       -167.4552         estimate D2E/DX2                !
 ! D153  D(24,40,68,59)        -47.3872         estimate D2E/DX2                !
 ! D154  D(24,40,68,63)         74.8739         estimate D2E/DX2                !
 ! D155  D(41,40,68,55)         68.7492         estimate D2E/DX2                !
 ! D156  D(41,40,68,59)       -171.1828         estimate D2E/DX2                !
 ! D157  D(41,40,68,63)        -48.9217         estimate D2E/DX2                !
 ! D158  D(42,40,68,55)        -44.7119         estimate D2E/DX2                !
 ! D159  D(42,40,68,59)         75.3561         estimate D2E/DX2                !
 ! D160  D(42,40,68,63)       -162.3828         estimate D2E/DX2                !
 ! D161  D(44,43,76,74)        103.4974         estimate D2E/DX2                !
 ! D162  D(44,43,76,79)       -129.0645         estimate D2E/DX2                !
 ! D163  D(46,43,76,74)       -129.8757         estimate D2E/DX2                !
 ! D164  D(46,43,76,79)         -2.4376         estimate D2E/DX2                !
 ! D165  D(67,43,76,74)        -12.7232         estimate D2E/DX2                !
 ! D166  D(67,43,76,79)        114.7149         estimate D2E/DX2                !
 ! D167  D(44,43,67,37)        176.8196         estimate D2E/DX2                !
 ! D168  D(44,43,67,47)        -63.6281         estimate D2E/DX2                !
 ! D169  D(44,43,67,51)         56.4071         estimate D2E/DX2                !
 ! D170  D(45,43,67,37)        -62.9471         estimate D2E/DX2                !
 ! D171  D(45,43,67,47)         56.6052         estimate D2E/DX2                !
 ! D172  D(45,43,67,51)        176.6404         estimate D2E/DX2                !
 ! D173  D(46,43,67,37)         57.599          estimate D2E/DX2                !
 ! D174  D(46,43,67,47)        177.1513         estimate D2E/DX2                !
 ! D175  D(46,43,67,51)        -62.8135         estimate D2E/DX2                !
 ! D176  D(48,47,49,77)         70.8622         estimate D2E/DX2                !
 ! D177  D(50,47,49,77)       -166.2566         estimate D2E/DX2                !
 ! D178  D(67,47,49,77)        -47.8573         estimate D2E/DX2                !
 ! D179  D(48,47,67,37)        -69.6001         estimate D2E/DX2                !
 ! D180  D(48,47,67,43)        173.359          estimate D2E/DX2                !
 ! D181  D(48,47,67,51)         53.0564         estimate D2E/DX2                !
 ! D182  D(49,47,67,37)         50.0766         estimate D2E/DX2                !
 ! D183  D(49,47,67,43)        -66.9642         estimate D2E/DX2                !
 ! D184  D(49,47,67,51)        172.7331         estimate D2E/DX2                !
 ! D185  D(50,47,67,37)        170.8685         estimate D2E/DX2                !
 ! D186  D(50,47,67,43)         53.8277         estimate D2E/DX2                !
 ! D187  D(50,47,67,51)        -66.475          estimate D2E/DX2                !
 ! D188  D(47,49,77,41)        -78.7443         estimate D2E/DX2                !
 ! D189  D(47,49,77,74)        128.3106         estimate D2E/DX2                !
 ! D190  D(47,49,77,83)         29.6654         estimate D2E/DX2                !
 ! D191  D(47,49,77,86)       -127.1979         estimate D2E/DX2                !
 ! D192  D(52,51,67,37)        -59.9236         estimate D2E/DX2                !
 ! D193  D(52,51,67,43)         58.1485         estimate D2E/DX2                !
 ! D194  D(52,51,67,47)        177.3546         estimate D2E/DX2                !
 ! D195  D(53,51,67,37)         60.2649         estimate D2E/DX2                !
 ! D196  D(53,51,67,43)        178.3371         estimate D2E/DX2                !
 ! D197  D(53,51,67,47)        -62.4568         estimate D2E/DX2                !
 ! D198  D(54,51,67,37)       -179.6712         estimate D2E/DX2                !
 ! D199  D(54,51,67,43)        -61.599          estimate D2E/DX2                !
 ! D200  D(54,51,67,47)         57.6071         estimate D2E/DX2                !
 ! D201  D(56,55,57,75)         68.621          estimate D2E/DX2                !
 ! D202  D(58,55,57,75)       -167.9213         estimate D2E/DX2                !
 ! D203  D(68,55,57,75)        -49.2915         estimate D2E/DX2                !
 ! D204  D(56,55,68,40)       -174.3515         estimate D2E/DX2                !
 ! D205  D(56,55,68,59)         64.6363         estimate D2E/DX2                !
 ! D206  D(56,55,68,63)        -55.2774         estimate D2E/DX2                !
 ! D207  D(57,55,68,40)        -55.3563         estimate D2E/DX2                !
 ! D208  D(57,55,68,59)       -176.3685         estimate D2E/DX2                !
 ! D209  D(57,55,68,63)         63.7178         estimate D2E/DX2                !
 ! D210  D(58,55,68,40)         65.3169         estimate D2E/DX2                !
 ! D211  D(58,55,68,59)        -55.6953         estimate D2E/DX2                !
 ! D212  D(58,55,68,63)       -175.609          estimate D2E/DX2                !
 ! D213  D(55,57,75,74)         75.5702         estimate D2E/DX2                !
 ! D214  D(55,57,75,88)        -49.4352         estimate D2E/DX2                !
 ! D215  D(60,59,68,40)        -55.5491         estimate D2E/DX2                !
 ! D216  D(60,59,68,55)         62.8277         estimate D2E/DX2                !
 ! D217  D(60,59,68,63)       -178.182          estimate D2E/DX2                !
 ! D218  D(61,59,68,40)         64.2786         estimate D2E/DX2                !
 ! D219  D(61,59,68,55)       -177.3446         estimate D2E/DX2                !
 ! D220  D(61,59,68,63)        -58.3543         estimate D2E/DX2                !
 ! D221  D(62,59,68,40)       -175.3253         estimate D2E/DX2                !
 ! D222  D(62,59,68,55)        -56.9485         estimate D2E/DX2                !
 ! D223  D(62,59,68,63)         62.0418         estimate D2E/DX2                !
 ! D224  D(64,63,68,40)        -62.285          estimate D2E/DX2                !
 ! D225  D(64,63,68,55)       -179.1734         estimate D2E/DX2                !
 ! D226  D(64,63,68,59)         60.8763         estimate D2E/DX2                !
 ! D227  D(65,63,68,40)         57.8798         estimate D2E/DX2                !
 ! D228  D(65,63,68,55)        -59.0086         estimate D2E/DX2                !
 ! D229  D(65,63,68,59)       -178.959          estimate D2E/DX2                !
 ! D230  D(66,63,68,40)        176.5943         estimate D2E/DX2                !
 ! D231  D(66,63,68,55)         59.7059         estimate D2E/DX2                !
 ! D232  D(66,63,68,59)        -60.2444         estimate D2E/DX2                !
 ! D233  D(76,74,75,57)       -157.2093         estimate D2E/DX2                !
 ! D234  D(76,74,75,88)        -47.0353         estimate D2E/DX2                !
 ! D235  D(77,74,75,57)         20.7332         estimate D2E/DX2                !
 ! D236  D(77,74,75,88)        130.9072         estimate D2E/DX2                !
 ! D237  D(75,74,76,45)       -159.8044         estimate D2E/DX2                !
 ! D238  D(75,74,76,79)         69.0422         estimate D2E/DX2                !
 ! D239  D(77,74,76,45)         22.2704         estimate D2E/DX2                !
 ! D240  D(77,74,76,79)       -108.8829         estimate D2E/DX2                !
 ! D241  D(75,74,77,41)        -29.4183         estimate D2E/DX2                !
 ! D242  D(75,74,77,49)        134.5253         estimate D2E/DX2                !
 ! D243  D(75,74,77,83)       -109.0835         estimate D2E/DX2                !
 ! D244  D(75,74,77,86)         40.7768         estimate D2E/DX2                !
 ! D245  D(76,74,77,41)        148.5986         estimate D2E/DX2                !
 ! D246  D(76,74,77,49)        -47.4577         estimate D2E/DX2                !
 ! D247  D(76,74,77,83)         68.9334         estimate D2E/DX2                !
 ! D248  D(76,74,77,86)       -141.2062         estimate D2E/DX2                !
 ! D249  D(57,75,87,89)       -128.18           estimate D2E/DX2                !
 ! D250  D(74,75,87,89)         99.5428         estimate D2E/DX2                !
 ! D251  D(45,76,79,78)       -113.8506         estimate D2E/DX2                !
 ! D252  D(74,76,79,78)         25.8306         estimate D2E/DX2                !
 ! D253  D(41,77,81,25)         28.3943         estimate D2E/DX2                !
 ! D254  D(41,77,81,82)       -110.5333         estimate D2E/DX2                !
 ! D255  D(49,77,81,25)       -118.3481         estimate D2E/DX2                !
 ! D256  D(49,77,81,82)        102.7243         estimate D2E/DX2                !
 ! D257  D(74,77,81,25)        137.3521         estimate D2E/DX2                !
 ! D258  D(74,77,81,82)         -1.5755         estimate D2E/DX2                !
 ! D259  D(86,77,81,25)         19.657          estimate D2E/DX2                !
 ! D260  D(86,77,81,82)       -119.2706         estimate D2E/DX2                !
 ! D261  D(41,77,84,85)        105.528          estimate D2E/DX2                !
 ! D262  D(49,77,84,85)       -103.0585         estimate D2E/DX2                !
 ! D263  D(74,77,84,85)          0.114          estimate D2E/DX2                !
 ! D264  D(83,77,84,85)        113.8429         estimate D2E/DX2                !
 ! D265  D(80,78,79,76)        -78.3222         estimate D2E/DX2                !
 ! D266  D(82,78,79,76)         36.539          estimate D2E/DX2                !
 ! D267  D(79,78,82,81)        -27.3926         estimate D2E/DX2                !
 ! D268  D(80,78,82,81)         75.2584         estimate D2E/DX2                !
 ! D269  D(25,81,82,78)        -98.7448         estimate D2E/DX2                !
 ! D270  D(83,81,82,78)         -1.6162         estimate D2E/DX2                !
 --------------------------------------------------------------------------------
 Trust Radius=3.00D-01 FncErr=1.00D-07 GrdErr=1.00D-06 EigMax=2.50D+02 EigMin=1.00D-04
 Number of steps in this run=    534 maximum allowed number of steps=    534.
 GradGradGradGradGradGradGradGradGradGradGradGradGradGradGradGradGradGrad

 Leave Link  103 at Sat Apr 20 11:32:42 2024, MaxMem=  1879048192 cpu:               0.7 elap:               0.1
 (Enter /packages/apps/gaussian/g16/g16/l202.exe)
 Stoichiometry    C28H52N2O7
 Framework group  C1[X(C28H52N2O7)]
 Deg. of freedom   261
 Full point group                 C1      NOp   1
 Largest Abelian subgroup         C1      NOp   1
 Largest concise Abelian subgroup C1      NOp   1
                         Standard orientation:                         
 ---------------------------------------------------------------------
 Center     Atomic      Atomic             Coordinates (Angstroms)
 Number     Number       Type             X           Y           Z
 ---------------------------------------------------------------------
      1          6           0       -4.013889   -3.484721   -2.536038
      2          6           0       -3.918075   -2.905954   -1.123619
      3          1           0       -3.550761   -4.469970   -2.590519
      4          1           0       -5.057320   -3.579470   -2.839459
      5          1           0       -3.516016   -2.840279   -3.262178
      6          6           0       -4.547032   -1.502552   -1.054380
      7          1           0       -4.480484   -3.561104   -0.451704
      8          6           0       -4.714591   -0.981154    0.373888
      9          1           0       -5.644394   -1.370934    0.795656
     10          1           0       -3.914881   -1.373180    1.005384
     11          6           0       -4.720855    0.547735    0.492543
     12          6           0       -5.076550    0.974252    1.926051
     13          6           0       -5.194726    2.481721    2.114997
     14          1           0       -5.495810    2.724809    3.133953
     15          1           0       -4.245705    2.981010    1.917256
     16          1           0       -5.939294    2.903596    1.436578
     17          6           0       -2.490453   -2.848438   -0.618615
     18          6           0       -1.517381   -2.141847   -1.320263
     19          6           0       -2.133230   -3.406181    0.604685
     20          6           0       -0.246012   -1.956765   -0.806882
     21          1           0       -1.762401   -1.676315   -2.266207
     22          6           0       -0.858738   -3.229492    1.124115
     23          1           0       -2.871092   -3.956239    1.175930
     24          6           0        0.098518   -2.493211    0.432352
     25          1           0        0.459575   -1.343848   -1.356021
     26          1           0       -0.619953   -3.638249    2.098899
     27          6           0       -3.403225    1.159737    0.056414
     28          6           0       -3.368971    2.187404   -0.880585
     29          6           0       -2.192412    0.729245    0.596603
     30          6           0       -2.169407    2.776849   -1.252951
     31          1           0       -4.293554    2.529055   -1.329263
     32          6           0       -0.991704    1.307890    0.224793
     33          1           0       -2.173136   -0.087739    1.306681
     34          6           0       -0.967450    2.353564   -0.696024
     35          1           0       -2.171339    3.562635   -1.999550
     36          1           0       -0.055908    0.944132    0.630499
     37          6           0        0.338927    2.961741   -1.114935
     38          1           0        1.137859    2.227416   -1.102615
     39          1           0        0.268953    3.385013   -2.115850
     40          6           0        1.420898   -2.186598    1.073527
     41          1           0        1.720093   -1.150093    0.900294
     42          1           0        1.364862   -2.333094    2.149862
     43          6           0        2.186413    4.485736   -0.726754
     44          1           0        2.533727    5.336010   -0.143753
     45          1           0        2.851808    3.620488   -0.597982
     46          1           0        2.100716    4.764262   -1.774870
     47          6           0        0.959958    3.650637    1.191778
     48          1           0       -0.033146    3.481398    1.597348
     49          1           0        1.535875    2.721879    1.199823
     50          1           0        1.462660    4.439148    1.746319
     51          6           0       -0.090262    5.258470   -0.303994
     52          1           0       -0.140498    5.605549   -1.333486
     53          1           0       -1.077120    4.954139    0.033229
     54          1           0        0.293414    6.050541    0.334214
     55          6           0        3.720998   -2.784390    1.565642
     56          1           0        4.606668   -3.295409    1.196119
     57          1           0        3.897494   -1.705741    1.601258
     58          1           0        3.427513   -3.172846    2.537933
     59          6           0        2.259922   -4.469018    0.582925
     60          1           0        1.908057   -4.763789    1.568704
     61          1           0        1.478506   -4.643241   -0.150794
     62          1           0        3.153167   -5.031759    0.323588
     63          6           0        3.044463   -2.592091   -0.752836
     64          1           0        2.236468   -2.748537   -1.459730
     65          1           0        3.304634   -1.540568   -0.705069
     66          1           0        3.922114   -3.169452   -1.030589
     67          7           0        0.829777    4.099861   -0.228448
     68          7           0        2.600394   -3.027475    0.604684
     69          1           0       -5.518207   -1.519314   -1.555514
     70          1           0       -3.917737   -0.817566   -1.628480
     71          1           0       -4.321063    0.575580    2.608985
     72          1           0       -6.021149    0.497626    2.199423
     73          1           0       -5.498825    0.938843   -0.171938
     74          6           0        3.411934    1.012010    0.486661
     75          8           0        4.211730    0.150399    0.988880
     76          8           0        3.811356    1.980910   -0.230482
     77          8           0        2.124597    0.858568    0.693121
     78          8           0        4.485779    0.583166   -2.473577
     79          1           0        4.379500    1.219516   -1.735427
     80          1           0        5.042103   -0.101215   -2.078135
     81          8           0        1.731600    0.163025   -2.029385
     82          1           0        2.640733    0.254408   -2.365559
     83          1           0        1.818599    0.387281   -1.085627
     84          8           0        2.042652    0.051648    3.311088
     85          1           0        2.981719    0.062113    3.498485
     86          1           0        2.020081    0.350428    2.375688
     87          8           0        5.921928   -1.079956   -0.556179
     88          1           0        5.363808   -0.522628    0.054873
     89          1           0        6.798330   -0.700529   -0.512621
 ---------------------------------------------------------------------
 Rotational constants (GHZ):           0.1158719           0.0814166           0.0579880
 Leave Link  202 at Sat Apr 20 11:32:42 2024, MaxMem=  1879048192 cpu:               1.2 elap:               0.1
 (Enter /packages/apps/gaussian/g16/g16/l301.exe)
 Standard basis: 6-311+G(2d,2p) (5D, 7F)
 Ernie: Thresh=  0.10000D-02 Tol=  0.10000D-05 Strict=F.
 There are  1541 symmetry adapted cartesian basis functions of A   symmetry.
 There are  1467 symmetry adapted basis functions of A   symmetry.
  1467 basis functions,  2126 primitive gaussians,  1541 cartesian basis functions
   145 alpha electrons      145 beta electrons
       nuclear repulsion energy      4810.4085040774 Hartrees.
 IExCor= 4639 DFT=T Ex+Corr=wB97XD ExCW=0 ScaHFX=  1.000000
 ScaDFX=  1.000000  1.000000  1.000000  1.000000 ScalE2=  1.000000  1.000000
 IRadAn=      5 IRanWt=     -1 IRanGd=            0 ICorTp=0 IEmpDi=121
 HFx  wShort=  0.000000 wLong=  0.200000 cFull=  0.222036 cShort=  0.000000 cLong=  0.777964
 DFx  wShort=  0.000000 wLong=  0.200000 cFull=  0.000000 cShort=  0.000000 cLong=  1.000000
 NAtoms=   89 NActive=   89 NUniq=   89 SFac= 1.00D+00 NAtFMM=   60 NAOKFM=T Big=T
 Integral buffers will be    131072 words long.
 Raffenetti 2 integral format.
 Two-electron integral symmetry is turned on.
 R6Disp:  Grimme-D2 Dispersion energy=       -0.1039330130 Hartrees.
 Nuclear repulsion after empirical dispersion term =     4810.3045710643 Hartrees.
 Leave Link  301 at Sat Apr 20 11:32:42 2024, MaxMem=  1879048192 cpu:               1.1 elap:               0.1
 (Enter /packages/apps/gaussian/g16/g16/l302.exe)
 NPDir=0 NMtPBC=     1 NCelOv=     1 NCel=       1 NClECP=     1 NCelD=      1
         NCelK=      1 NCelE2=     1 NClLst=     1 CellRange=     0.0.
 One-electron integrals computed using PRISM.
 One-electron integral symmetry used in STVInt
 NBasis=  1467 RedAO= T EigKep=  1.08D-06  NBF=  1467
 NBsUse=  1458 1.00D-06 EigRej=  7.97D-07 NBFU=  1458
 Precomputing XC quadrature grid using
 IXCGrd= 4 IRadAn=           5 IRanWt=          -1 IRanGd=           0 AccXCQ= 0.00D+00.
 Generated NRdTot=       0 NPtTot=           0 NUsed=           0 NTot=          32
 NSgBfM=  1492  1492  1492  1492  1492 MxSgAt=    89 MxSgA2=    89.
 Leave Link  302 at Sat Apr 20 11:32:48 2024, MaxMem=  1879048192 cpu:             111.1 elap:               6.3
 (Enter /packages/apps/gaussian/g16/g16/l303.exe)
 DipDrv:  MaxL=1.
 Leave Link  303 at Sat Apr 20 11:32:49 2024, MaxMem=  1879048192 cpu:               4.5 elap:               0.5
 (Enter /packages/apps/gaussian/g16/g16/l401.exe)
 ExpMin= 4.38D-02 ExpMax= 8.59D+03 ExpMxC= 1.30D+03 IAcc=3 IRadAn=         5 AccDes= 0.00D+00
 Harris functional with IExCor= 4639 and IRadAn=       5 diagonalized for initial guess.
 HarFok:  IExCor= 4639 AccDes= 0.00D+00 IRadAn=         5 IDoV= 1 UseB2=F ITyADJ=14
 ICtDFT=  3500011 ScaDFX=  1.000000  1.000000  1.000000  1.000000
 FoFCou: FMM=F IPFlag=           0 FMFlag=      100000 FMFlg1=        2001
         NFxFlg=           0 DoJE=T BraDBF=F KetDBF=T FulRan=T
         wScrn=  0.000000 ICntrl=       500 IOpCl=  0 I1Cent=   200000004 NGrid=           0
         NMat0=    1 NMatS0=      1 NMatT0=    0 NMatD0=    1 NMtDS0=    0 NMtDT0=    0
 Petite list used in FoFCou.
 Harris En= -1658.63718473975    
 JPrj=0 DoOrth=F DoCkMO=F.
 Leave Link  401 at Sat Apr 20 11:32:59 2024, MaxMem=  1879048192 cpu:             192.0 elap:              10.1
 (Enter /packages/apps/gaussian/g16/g16/l502.exe)
 Integral symmetry usage will be decided dynamically.
 Closed shell SCF:
 Using DIIS extrapolation, IDIIS=  1040.
 NGot=  1879048192 LenX=  1874253669 LenY=  1871877447
 Requested convergence on RMS density matrix=1.00D-08 within 128 cycles.
 Requested convergence on MAX density matrix=1.00D-06.
 Requested convergence on             energy=1.00D-06.
 No special actions if energy rises.
 Fock matrices will be formed incrementally for  20 cycles.

 Cycle   1  Pass 1  IDiag  1:
 FoFJK:  IHMeth= 1 ICntrl=       0 DoSepK=T KAlg= 0 I1Cent=           0 FoldK=F
 IRaf=         1 NMat=       1 IRICut=       1 DoRegI=T DoRafI=F ISym2E= 0 IDoP0=0 IntGTp=1.
 FoFCou: FMM=T IPFlag=           0 FMFlag=      100000 FMFlg1=        2001
         NFxFlg=           0 DoJE=T BraDBF=F KetDBF=F FulRan=T
         wScrn=  0.000000 ICntrl=       500 IOpCl=  0 I1Cent=           0 NGrid=           0
         NMat0=    1 NMatS0=      1 NMatT0=    0 NMatD0=    1 NMtDS0=    0 NMtDT0=    0
 Symmetry not used in FoFCou.
 FMM levels:  10  Number of levels for PrismC:   9
 E= -1733.88160165928    
 DIIS: error= 3.92D-02 at cycle   1 NSaved=   1.
 NSaved= 1 IEnMin= 1 EnMin= -1733.88160165928     IErMin= 1 ErrMin= 3.92D-02
 ErrMax= 3.92D-02  0.00D+00 EMaxC= 1.00D-01 BMatC= 3.70D+00 BMatP= 3.70D+00
 IDIUse=3 WtCom= 6.08D-01 WtEn= 3.92D-01
 Coeff-Com:  0.100D+01
 Coeff-En:   0.100D+01
 Coeff:      0.100D+01
 Gap=     0.349 Goal=   None    Shift=    0.000
 GapD=    0.349 DampG=1.000 DampE=0.500 DampFc=0.5000 IDamp=-1.
 Damping current iteration by 5.00D-01
 RMSDP=4.18D-03 MaxDP=1.04D+00              OVMax= 1.17D-01

 Cycle   2  Pass 1  IDiag  1:
 RMSU=  1.25D-03    CP:  8.66D-01
 E= -1734.15341828364     Delta-E=       -0.271816624356 Rises=F Damp=T
 DIIS: error= 1.87D-02 at cycle   2 NSaved=   2.
 NSaved= 2 IEnMin= 2 EnMin= -1734.15341828364     IErMin= 2 ErrMin= 1.87D-02
 ErrMax= 1.87D-02  0.00D+00 EMaxC= 1.00D-01 BMatC= 7.68D-01 BMatP= 3.70D+00
 IDIUse=3 WtCom= 8.13D-01 WtEn= 1.87D-01
 Coeff-Com: -0.588D+00 0.159D+01
 Coeff-En:   0.000D+00 0.100D+01
 Coeff:     -0.478D+00 0.148D+01
 Gap=     0.305 Goal=   None    Shift=    0.000
 RMSDP=2.46D-03 MaxDP=5.28D-01 DE=-2.72D-01 OVMax= 1.06D-01

 Cycle   3  Pass 1  IDiag  1:
 RMSU=  1.10D-03    CP:  7.05D-01  1.69D+00
 E= -1734.29929572975     Delta-E=       -0.145877446119 Rises=F Damp=F
 DIIS: error= 9.88D-03 at cycle   3 NSaved=   3.
 NSaved= 3 IEnMin= 3 EnMin= -1734.29929572975     IErMin= 3 ErrMin= 9.88D-03
 ErrMax= 9.88D-03  0.00D+00 EMaxC= 1.00D-01 BMatC= 2.01D-01 BMatP= 7.68D-01
 IDIUse=3 WtCom= 9.01D-01 WtEn= 9.88D-02
 Coeff-Com: -0.360D+00 0.769D+00 0.591D+00
 Coeff-En:   0.000D+00 0.000D+00 0.100D+01
 Coeff:     -0.325D+00 0.693D+00 0.632D+00
[...]
 0009818,-0.00011895,0.00006194,-0.00050216,0.00042440,0.00023467,0.000
 03352,-0.00000392,0.00000877,-0.00000402,-0.00000526,-0.00002776,-0.00
 000735,-0.00001452,0.00001471,0.00003630,0.00000655,-0.00002141,0.0000
 3105,-0.00000391,0.00000813,-0.01704562,0.01994670,-0.01453696,0.00963
 064,-0.01696571,-0.00372998,-0.00106782,-0.00843590,0.00722166,0.00973
 869,-0.00061492,0.00240007,-0.00420382,0.00279438,0.00109142,0.0018232
 7,-0.00127138,-0.00333367,0.00454923,-0.00276356,0.00126176,-0.0003652
 9,0.00046062,0.00165511,0.00103194,-0.00001554,-0.00065047,-0.00044364
 ,-0.00048734,-0.00182577,0.00059381,0.00047108,-0.00146476,-0.00004201
 ,-0.00016689,0.00086314,-0.00078064,-0.00046013,0.00148159,-0.13912795
 ,0.06983895,0.08883457,0.16232041,0.00001088,-0.00000032,0.00000043,-0
 .00001391,0.00001026,0.00000532,0.00000296,-0.00001776,-0.00000416,-0.
 00000045,0.00000303,0.00000090,-0.00000376,0.00000580,0.00000167,0.000
 01492,0.00001291,0.00000665,0.00000052,-0.00000688,0.00000269,-0.00001
 447,0.00001363,0.00001370,-0.00001715,-0.00002303,-0.00000058,0.000003
 08,0.00001749,-0.00000123,0.00004503,0.00003737,0.00000458,-0.00001699
 ,-0.00003063,-0.00001087,0.00002194,0.00000567,-0.00000326,-0.00000320
 ,-0.00000185,0.00001136,-0.00000966,-0.00001744,-0.00000459,-0.0000031
 0,-0.00000051,-0.00000860,-0.00000739,0.00000921,-0.00001617,0.0000060
 3,-0.00003843,-0.00000938,0.00001242,-0.00001072,0.00002301,0.00003751
 ,-0.00003809,-0.00003926,0.00000422,0.00001933,0.00001867,-0.00002063,
 -0.00004637,-0.00001188,-0.00000540,0.00001248,0.00000498,0.00012603,-
 0.00022291,-0.00004500,0.00004438,0.00016400,-0.00001140,-0.00001323,0
 .00001519,0.00002299,0.00001344,-0.00000819,-0.00002391,-0.00006028,-0
 .00003716,0.00000833,-0.00009706,0.00006471,-0.00009848,0.00001775,-0.
 00004388,0.00002482,-0.00002768,0.00000748,-0.00000233,-0.00001640,-0.
 00007574,0.00006368,0.00000558,0.00000604,0.00003391,-0.00002506,0.000
 03111,-0.00003037,0.00000651,0.00001443,0.00000525,0.00037309,0.000063
 28,0.00000464,0.00015800,0.00010061,0.00001100,0.00014851,-0.00007457,
 0.00022024,-0.00005685,0.00005618,-0.00001387,-0.00054902,0.00034769,0
 .00018942,0.00034946,0.00089407,0.00006025,0.00008559,0.00004112,0.000
 02106,-0.00011395,0.00027045,-0.00009893,-0.00003990,0.00002572,0.0000
 3649,0.00050319,-0.00083497,0.00025479,-0.00007662,0.00004805,-0.00004
 378,-0.00002613,0.00009435,0.00009223,-0.00005475,0.00004108,-0.000009
 48,0.00029255,-0.00053212,-0.00012659,0.00000372,0.00003442,-0.0000279
 1,0.00003825,-0.00012757,-0.00001696,-0.00000318,0.00001484,-0.0000194
 0,-0.00002324,0.00001760,0.00001541,0.00000744,-0.00001264,0.00000380,
 -0.00040052,-0.00095539,-0.00014952,-0.00004007,-0.00111447,0.00009795
 ,-0.00130470,0.00232997,0.00092870,0.00039474,0.00021531,-0.00008097,0
 .00008416,-0.00012675,-0.00007251,-0.00001039,0.00005388,-0.00003806,-
 0.00002612,0.00003824,0.00003576,0.00001379,-0.00010651,-0.00001164,-0
 .00011291,-0.00049755,0.00029958,0.00026093,0.00028318,-0.00010059,-0.
 00138326,0.00086939,-0.00007537,-0.00016669,-0.00066830,-0.00022126,-0
 .00011207,0.00004828,-0.00005437,0.00045468,-0.00010499,-0.00014790,-0
 .00000419,-0.00001005,-0.00000536,-0.00000355,0.00001109,0.00001961,0.
 00000829,0.00001137,-0.00000806,-0.00002857,-0.00000470,0.00001776,-0.
 00002118,-0.00000380,-0.00000327,0.01266890,-0.01299140,0.00633657,-0.
 01292935,0.00140073,0.00551519,-0.00130423,0.00467636,-0.00287404,-0.0
 0810138,0.00097367,-0.00165646,0.00174248,-0.00256857,-0.00107212,-0.0
 0012891,0.00052476,0.00290451,-0.00224737,0.00311273,-0.00005287,0.000
 14129,-0.00079107,-0.00094700,-0.00034550,0.00025775,0.00024613,0.0002
 7310,0.00060898,0.00131712,-0.00051013,-0.00060407,0.00108554,0.000068
 62,0.00025872,-0.00065255,0.00066259,0.00039915,-0.00113840,0.10928287
 ,-0.14732465,-0.13368017,-0.08150596,0.14109001,-0.00001378,0.00000005
 ,0.00000804,0.00001566,0.00002480,0.00000250,0.00000621,-0.00001229,0.
 00000194,-0.00001067,-0.00000004,-0.00000959,0.00000204,0.00000893,0.0
 0000128,-0.00000267,-0.00000642,-0.00000037,-0.00000275,-0.00000668,0.
 00000009,-0.00000042,0.00000904,0.00001274,-0.00001627,-0.00001589,-0.
 00000046,0.00000165,0.00001041,-0.00001102,0.00003058,0.00002685,0.000
 00085,-0.00000266,-0.00002396,-0.00000473,0.00001650,0.00000406,-0.000
 00139,-0.00000099,-0.00000101,0.00001038,-0.00000615,-0.00001462,-0.00
 000181,-0.00000601,0.00000117,-0.00001026,-0.00000077,-0.00001855,0.00
 000341,0.00000182,-0.00002126,-0.00002351,-0.00001678,0.00001255,-0.00
 002482,-0.00002590,-0.00006555,-0.00002001,-0.00002305,0.00001885,0.00
 000141,-0.00003049,-0.00001031,-0.00006712,-0.00001788,0.00000506,0.00
 000458,0.00012680,-0.00013630,0.00002174,-0.00005623,0.00001744,0.0000
 7917,0.00001249,0.00002587,-0.00000359,0.00001641,-0.00001313,-0.00000
 444,-0.00004692,-0.00001186,-0.00000753,-0.00010595,0.00005842,-0.0000
 9041,0.00000544,-0.00002301,0.00000251,-0.00002383,0.00000726,-0.00000
 318,0.00001126,-0.00008194,0.00007582,0.00001969,0.00000887,0.00001954
 ,-0.00003522,-0.00000326,-0.00002670,-0.00000264,0.00002338,-0.0000034
 6,0.00038620,0.00004840,0.00002175,0.00008793,0.00006899,-0.00000685,0
 .00009017,-0.00005230,0.00029900,-0.00007934,0.00008611,-0.00002366,-0
 .00017461,0.00013307,0.00000230,0.00032759,0.00069349,0.00012436,0.000
 13611,0.00005463,-0.00003163,-0.00016356,0.00018840,-0.00002223,-0.000
 02211,0.00001528,0.00002126,0.00035884,-0.00062590,0.00024384,-0.00007
 971,0.00006764,-0.00004781,-0.00003006,0.00012270,0.00015047,-0.000034
 39,0.00002993,-0.00001600,0.00027810,-0.00060820,-0.00010948,-0.000005
 19,0.00004569,-0.00002010,0.00003873,-0.00009444,-0.00003243,-0.000015
 01,0.00001798,-0.00002510,-0.00000801,0.00000637,0.00000965,0.00000527
 ,-0.00001534,0.00000955,-0.00000183,0.00004278,0.00049573,-0.00010624,
 -0.00023290,0.00009482,0.00138090,0.00260108,-0.00101979,-0.00006701,-
 0.00024935,-0.00008523,-0.00010600,0.00010695,-0.00033398,0.00004789,0
 .00008877,-0.00004344,-0.00008143,-0.00009461,-0.00001118,0.00001825,-
 0.00005801,0.00004985,-0.00017999,-0.00045575,0.00043020,0.00014484,0.
 00010908,-0.00013683,-0.00130711,0.00023243,0.00069986,-0.00024215,-0.
 00054438,-0.00006484,-0.00004284,0.00005010,-0.00008171,0.00023714,-0.
 00014540,-0.00013987,-0.00001818,0.00000058,-0.00000591,0.00000246,0.0
 0000740,0.00001631,0.00000297,0.00001121,-0.00000990,-0.00002228,-0.00
 000423,0.00001248,-0.00002110,0.00000153,-0.00000606,0.00673127,-0.016
 07371,0.01588976,-0.01113168,0.01464578,-0.01230754,0.00118023,0.00655
 427,-0.00743850,-0.00914435,0.00234722,-0.00274824,0.00326103,-0.00325
 492,0.00156269,-0.00214565,0.00329421,0.00240829,-0.00154818,0.0014336
 3,-0.00752122,0.00120698,-0.00053044,-0.00153363,-0.00180598,0.0000602
 6,0.00040546,0.00008573,0.00061321,0.00181089,-0.00054958,-0.00024238,
 0.00088398,0.00016833,0.00003497,-0.00060347,0.00060770,0.00023603,-0.
 00092066,0.12237047,-0.12302260,-0.15536772,-0.10397041,0.11067507,0.1
 6152027,0.00000493,-0.00000334,-0.00000088,-0.00000977,-0.00000803,-0.
 00000063,-0.00000269,0.00000129,-0.00000134,0.00000622,0.00000080,0.00
 000282,-0.00000183,0.00000018,-0.00000211,-0.00000113,0.00000271,0.000
 00300,0.00000387,0.00000311,-0.00000232,0.00000142,-0.00000215,0.00000
 004,0.00000649,0.00000402,-0.00000130,-0.00000172,-0.00000037,0.000004
 88,-0.00001072,-0.00000258,-0.00000466,0.00000101,0.00000425,0.0000040
 6,-0.00000417,-0.00000095,-0.00000083,0.00000140,-0.00000082,-0.000004
 80,0.00000174,0.00000381,0.00000194,0.00000105,-0.00000054,0.00000272,
 -0.00000778,0.00000680,-0.00000081,0.00001245,0.00000911,-0.00000695,0
 .00000867,-0.00000128,0.00000350,0.00000023,0.00000934,0.00000128,-0.0
 0000274,-0.00000473,0.00000136,0.00000365,-0.00000125,0.00001032,0.000
 00613,0.00000142,-0.00000239,-0.00000119,0.00000470,-0.00000758,-0.000
 03096,-0.00003286,0.00001251,-0.00000315,-0.00000118,-0.00000143,-0.00
 000473,-0.00000309,0.00000475,0.00000857,0.00000726,-0.00000237,0.0000
 1534,-0.00000953,0.00000571,-0.00000193,0.00000649,-0.00000686,0.00000
 556,-0.00000030,0.00000158,-0.00000080,0.00000716,-0.00000328,-0.00000
 338,0.00000272,-0.00000094,0.00000216,-0.00001371,-0.00000218,-0.00000
 275,-0.00000099,0.00000112,-0.00003887,-0.00000280,0.00000296,-0.00002
 434,-0.00000235,-0.00000109,-0.00003320,0.00002618,-0.00000065,0.00000
 025,-0.00000052,0.00000125,-0.00000977,0.00002551,0.00000293,-0.000020
 97,-0.00006090,-0.00000084,-0.00000633,-0.00000282,0.00000034,0.000008
 49,-0.00003467,0.00001846,0.00000833,-0.00000707,-0.00001038,-0.000078
 44,0.00012997,-0.00002052,0.00000654,0.00000330,0.00000527,0.00000503,
 -0.00000868,-0.00000010,0.00000898,-0.00000378,0.00000071,-0.00004079,
 0.00005859,0.00001564,-0.00000486,-0.00000419,0.00000321,-0.00000969,0
 .00002453,-0.00000215,-0.00000063,0.00000028,0.00000281,0.00000506,-0.
 00000122,-0.00000143,-0.00000219,-0.00000040,-0.00000136,-0.00001686,0
 .00007874,-0.00006093,-0.00002386,-0.00008787,0.00005131,-0.00007307,-
 0.00011234,0.00000975,0.00005617,0.00000881,-0.00002092,0.00000172,-0.
 00003878,0.00002801,0.00000024,-0.00000586,-0.00000156,0.00000738,0.00
 000964,0.00000412,-0.00000265,-0.00000558,-0.00000165,-0.00000817,0.00
 020534,-0.00000203,0.00001335,-0.00005929,0.00002449,0.00007360,-0.000
 15775,0.00000843,-0.00005520,-0.00001254,-0.00000677,0.00002291,-0.000
 01793,-0.00000443,0.00000762,-0.00000888,-0.00002513,0.00000689,-0.000
 00173,0.00000094,-0.00000144,0.00000094,-0.00000502,-0.00000152,-0.000
 00205,0.00000175,0.00000605,0.00000165,-0.00000337,0.00000483,-0.00000
 104,0.00000202,-0.00064970,-0.00023522,0.00059114,0.00054616,0.0013026
 1,0.00057674,0.00059394,-0.00011757,-0.00037312,0.00056725,-0.00002410
 ,-0.00017363,0.00132199,-0.00015111,0.00040643,-0.00049350,0.00028517,
 0.00006154,-0.00213037,-0.00015769,-0.00105194,0.00028497,0.00006929,-
 0.00006884,-0.00036803,-0.00007231,0.00006547,-0.00004587,-0.00001934,
 0.00000371,0.00004041,0.00001429,-0.00012572,-0.00001378,0.00000628,0.
 00006132,-0.00003268,-0.00002527,0.00011361,-0.46280431,-0.17135258,-0
 .00198678,-0.02446534,-0.01640294,-0.00586968,0.48785881,-0.00000229,0
 .00000216,-0.00000004,0.00000354,0.00000324,0.00000286,0.00000218,-0.0
 0000192,0.00000026,-0.00000313,0.00000027,-0.00000204,0.00000057,-0.00
 000008,0.00000166,0.00000045,-0.00000062,-0.00000113,-0.00000262,-0.00
 000215,0.00000127,-0.00000050,0.00000235,0.00000249,-0.00000405,-0.000
 00331,0.00000039,0.00000141,0.00000116,-0.00000253,0.00000658,0.000003
 03,0.00000096,-0.00000243,-0.00000376,-0.00000340,0.00000324,0.0000006
 5,0.00000043,-0.00000102,0.00000046,0.00000253,-0.00000172,-0.00000249
 ,-0.00000140,0.00000013,0.,-0.00000142,0.00000278,-0.00000191,-0.00000
 183,-0.00000517,-0.00000905,0.00001058,-0.00000678,-0.00000488,-0.0000
 0122,0.00000156,0.00000470,-0.00000700,0.00000199,0.00000413,0.0000008
 8,-0.00000019,0.00000014,-0.00000712,-0.00000461,0.00000020,0.00000204
 ,0.00000725,-0.00000681,0.00000272,0.00002298,0.00001426,-0.00000564,0
 .00000046,0.00000087,0.00000421,0.00000475,0.00000237,-0.00000534,-0.0
 0000636,-0.00000613,0.00000501,-0.00000729,0.00000342,-0.00000312,0.00
 000378,-0.00000854,0.00000654,-0.00000414,0.00000075,-0.00000109,-0.00
 000378,0.00000008,-0.00000043,0.00000038,-0.00000197,0.00000139,-0.000
 00182,0.00000558,-0.00000497,0.00000315,-0.00000016,0.00000190,0.00001
 435,0.00000393,-0.00000221,0.00002277,0.00002004,0.00001276,0.00001691
 ,-0.00000406,-0.00000609,0.00000308,-0.00000432,0.00000159,0.00001606,
 -0.00002613,0.00003726,0.00001122,0.00002696,-0.00000879,-0.00001542,0
 .00000342,0.00001120,0.00002036,0.00002532,-0.00001411,0.00000134,-0.0
 0000503,0.00000410,0.00005750,-0.00006145,0.00000437,0.00000033,-0.000
 00486,-0.00000126,-0.00000212,0.00000324,-0.00000438,-0.00000816,0.000
 00294,0.00000081,0.00001779,-0.00000677,-0.00001099,0.00000624,-0.0000
 0393,-0.00000485,0.00000344,-0.00001946,0.00000455,0.00000360,0.000000
 37,-0.00000006,-0.00000581,0.00000313,0.00000197,0.00000284,-0.0000011
 1,-0.00000193,-0.00009698,-0.00005006,0.00007361,-0.00009749,0.0000635
 4,-0.00010592,-0.00002049,0.00001083,-0.00003744,-0.00006853,-0.000018
 60,0.00002730,-0.00001390,0.00006604,0.00003569,-0.00000994,-0.0000134
 6,0.00000842,0.00000615,0.00000431,-0.00000163,-0.00000347,0.00000235,
 -0.00001133,-0.00005787,-0.00007343,-0.00021868,-0.00014078,-0.0000244
 2,0.00007057,-0.00000083,-0.00027731,-0.00001378,0.00004414,0.00034440
 ,0.00011441,-0.00003074,-0.00000164,0.00000018,0.00003850,-0.00000280,
 -0.00001154,-0.00000395,0.00000060,-0.00000118,-0.00000023,0.00000019,
 0.00000337,0.00000145,0.00000107,-0.00000153,-0.00000475,-0.00000090,0
 .00000292,-0.00000253,0.00000045,-0.00000036,0.00002016,0.00128916,-0.
 00117240,0.00127422,-0.00250969,-0.00149463,-0.00073440,-0.00049827,0.
 00056171,-0.00006864,-0.00012543,0.00031758,-0.00068249,-0.00100253,0.
 00044746,0.00061819,0.00000976,-0.00000538,0.00105178,0.00125020,-0.00
 025913,-0.00019061,-0.00002957,0.00005867,0.00022355,0.00003992,-0.000
 03834,0.00002388,0.00000193,-0.00004039,0.00000520,-0.00004463,0.00007
 313,-0.00000548,0.00002593,-0.00001503,-0.00000003,0.00002381,-0.00007
 561,-0.20985988,-0.10853835,-0.02258437,0.02165063,0.01041092,0.001782
 73,0.18696058,0.09971742,-0.00000693,-0.00000026,0.00000226,0.00000784
 ,0.00000443,0.00000130,0.00000111,0.00000008,0.00000199,-0.00000324,-0
 .00000085,-0.00000302,0.00000196,0.00000212,0.00000001,-0.00000469,-0.
 00000541,-0.00000164,-0.00000113,-0.00000025,-0.00000116,0.00000373,-0
 .00000061,0.00000082,0.00000010,0.00000105,-0.00000005,-0.00000074,-0.
 00000111,-0.00000308,-0.00000205,-0.00000142,-0.00000011,0.00000361,0.
 00000051,0.00000215,-0.00000019,-0.00000025,0.00000026,0.00000124,-0.0
 0000019,-0.00000058,0.00000028,0.00000005,0.00000147,-0.00000151,0.000
 00049,-0.00000115,0.00000245,-0.00000809,0.00000337,0.00000046,0.00000
 224,0.00000288,-0.00000846,0.00000417,-0.00001255,-0.00001145,-0.00000
 374,-0.00000094,-0.00000715,0.00000201,-0.00000352,0.00000049,0.000008
 73,-0.00001113,-0.00000293,-0.00000125,0.00000077,0.00000723,0.0000138
 7,0.00001148,-0.00001593,-0.00003176,0.00002314,0.00000467,0.00000366,
 -0.00000640,0.00000135,-0.00000120,0.00000335,0.00000177,0.00000482,-0
 .00000513,-0.00000349,-0.00000214,0.00000113,-0.00000228,0.00000114,-0
 .00000226,-0.00000079,0.00000048,0.00000018,0.00000894,-0.00000277,-0.
 00000079,0.00000420,0.00000190,-0.00000227,-0.00000312,-0.00000704,-0.
 00000258,-0.00000175,0.00000391,-0.00000140,0.00000360,-0.00000280,0.0
 0000780,-0.00000683,-0.00000170,0.00000825,-0.00000544,0.00000453,0.00
 001984,-0.00000812,0.00000849,-0.00000370,0.00008159,-0.00006077,0.000
 00010,-0.00000457,-0.00003063,0.00000869,-0.00000528,0.00001372,0.0000
 0063,-0.00001641,0.00000106,0.00001764,0.00000494,-0.00000534,-0.00000
 006,-0.00000439,-0.00000027,0.00002283,-0.00001170,0.00000986,-0.00000
 610,0.00000499,0.00000399,0.00002621,0.00000191,-0.00000056,-0.0000033
 3,0.00000365,-0.00001524,0.00000588,0.00000134,-0.00000365,0.00000084,
 0.00000283,0.00000144,-0.00000130,-0.00000323,0.00000147,-0.00000301,0
 .00000263,-0.00000119,0.00000001,-0.00000067,-0.00000233,0.00000196,0.
 00009898,-0.00000536,-0.00011438,0.00006626,0.00001387,0.00005119,0.00
 003867,0.00001203,0.00012040,0.00005307,0.00004542,0.00000248,-0.00000
 916,0.00004148,0.00003286,0.00000538,-0.00001747,0.00000574,-0.0000028
 7,-0.00000445,-0.00000322,0.00000294,0.00000855,0.00000891,-0.00014998
 ,-0.00003300,0.00005607,-0.00006359,-0.00005016,0.00000418,0.00024193,
 -0.00011476,-0.00012949,0.00005034,0.00018916,0.00002907,0.00000875,0.
 00000259,-0.00002195,-0.00022004,-0.00006760,-0.00002672,-0.00000487,0
 .00000244,-0.00000047,0.00000210,-0.00000012,-0.00000007,-0.00000183,0
 .00000087,-0.00000097,0.00000072,-0.00000016,-0.00000079,-0.00000111,0
 .00000153,-0.00000127,-0.00004040,-0.00092380,0.00006329,0.00053434,-0
 .00148244,-0.00177470,0.00012891,0.00015170,-0.00052905,-0.00000175,0.
 00031842,-0.00005244,0.00138101,0.00102383,-0.00097630,-0.00041193,0.0
 0025509,0.00042261,-0.00314426,-0.00168291,0.00076173,0.00024572,0.000
 12135,-0.00019846,-0.00036797,-0.00012175,0.00013070,0.00001193,-0.000
 01846,0.00009956,-0.00005827,0.00004901,-0.00008193,0.00005541,-0.0000
 2024,0.00000955,0.00001759,-0.00004773,0.00010868,-0.03130886,-0.03312
 206,-0.02252546,0.02508059,0.01307913,0.00362062,0.00774776,0.02248859
 ,0.02081005\\-0.00000126,-0.00000026,0.00000025,-0.00000298,-0.0000025
 6,0.00000340,0.00000002,0.00000016,0.00000031,0.00000020,-0.00000050,0
 .00000079,-0.00000040,-0.00000027,-0.00000017,0.00000040,0.00000843,-0
 .00000369,0.00000159,-0.00000082,-0.00000001,-0.00000069,-0.00000868,0
 .00000587,0.00000034,0.00000109,0.00000283,0.00000258,-0.00000495,-0.0
 0000016,-0.00000229,0.00000506,-0.00001429,0.00000024,-0.00000834,-0.0
 0000127,0.00000093,-0.00000044,-0.00000218,0.00000051,0.00000051,-0.00
 000041,0.00000042,-0.00000021,-0.00000048,-0.00000027,0.00000011,0.000
 00013,-0.00000144,0.00000321,0.00000223,0.00000135,0.00000050,0.000002
 57,0.00000145,0.00000046,0.00000119,-0.00000072,0.00000046,0.00000268,
 0.00000032,-0.00000083,0.00000096,0.00000117,-0.00000330,-0.00000361,-
 0.00000002,0.00000069,0.00000027,-0.00000108,0.00000543,0.00000117,0.0
 0000280,-0.00000462,-0.00000188,0.00000022,0.00000225,0.00000155,0.000
 00443,0.00000719,0.00001136,-0.00000123,-0.00000248,-0.00000254,0.0000
 0071,0.00000018,0.00000072,0.00000249,-0.00000746,-0.00000396,0.000000
 81,0.00000038,0.00000171,0.00000227,0.00000496,0.00000691,0.00000052,0
 .00000044,-0.00000186,0.00000174,-0.00000545,0.00000295,0.00000011,-0.
 00000079,0.00000174,0.00000217,-0.00000077,-0.00000170,-0.00000776,0.0
 0001665,-0.00001389,0.00000007,0.00001441,0.00002508,0.00000682,-0.000
 00112,-0.00000120,-0.00000243,0.00000097,0.00000013,0.00000561,-0.0000
 0313,-0.00000134,0.00000176,0.00000297,-0.00000395,-0.00000047,-0.0000
 0203,-0.00000058,0.00000108,0.00000210,-0.00000131,-0.00001502,-0.0000
 0735,-0.00000559,-0.00000065,-0.00000109,0.00000204,0.00001155,-0.0000
 1312,-0.00000157,0.00000044,0.00000033,-0.00000225,-0.00000215,-0.0000
 0270,-0.00001023,-0.00000204,0.00000004,-0.00000384,-0.00000384,0.0000
 0679,-0.00000113,-0.00000043,0.00000078,-0.00000031,0.00000277,0.00000
 241,-0.00000036,-0.00000038,-0.00000047,-0.00000089,-0.00000482,0.0000
 0003,-0.00002352,-0.00000134,-0.00000078,-0.00000023,0.00000851,0.0000
 0898,0.00001655,-0.00000089,0.00000051,-0.00000154,0.00000197,-0.00000
 219,0.00000119,-0.00000002,0.00000030,-0.00000214,0.00000156,-0.000000
 06,0.00000135,0.00000034,0.00000083,0.00000109,0.00000015,-0.00000220,
 0.00000192,-0.00000146,-0.00000091,0.00000223,-0.00000357,0.,0.0000074
 3,-0.00000159,0.00000004,0.00000038,-0.00000074,0.00000243,-0.00000641
 ,0.00000488,-0.00000710,0.00000296,-0.00000083,-0.00000255,0.00000070,
 -0.00000473,-0.00000043,0.00000110,-0.00000160,0.00000057,-0.00000052,
 0.00000075,-0.00000037,0.00000048,0.00000212,0.00000181,0.00000022,-0.
 00002429,0.00002191,-0.00001074,-0.00001629,-0.00000774,0.00000430,0.0
 0000326,-0.00001364,0.00001324,0.00002316,-0.00001647,-0.00000085,0.00
 000352,-0.00000303,0.00000525,0.00000279,-0.00001485,-0.00001143,-0.00
 001336,0.00002028,-0.00000184,-0.00003468,-0.00000349,-0.00001452,0.00
 001814,0.00000924,0.00000520,0.00001874,0.00000475,0.00001739,-0.00002
 060,0.00000013,-0.00000373,0.00002462,-0.00000033,0.00000959,-0.000002
 34,0.00000304,-0.00000609,-0.00000922,-0.00000502,0.00001400,-0.000013
 82,-0.00000288,-0.00001580,0.00002933,0.00000397,0.00000060\\\@


 GROWING OLD ISN'T SO BAD -- WHEN YOU CONSIDER THE ALTERNATIVE.

                     -- MAURICE CHEVALIER
 Job cpu time:      16 days 12 hours  9 minutes  9.2 seconds.
 Elapsed time:       0 days 20 hours  5 minutes 41.7 seconds.
 File lengths (MBytes):  RWF=  31310 Int=      0 D2E=      0 Chk=    172 Scr=      1
 Normal termination of Gaussian 16 at Sun Apr 21 09:05:06 2024.
