 Entering Gaussian System, Link 0=g16
 Input=6water-ofreq.gjf
 Output=6water-ofreq.log
 Initial command:
 /packages/apps/gaussian/g16/g16/l1.exe "/scratch/mdturne9/2-5-methyl/ofreq/Gau-2087982.inp" -scrdir="/scratch/mdturne9/2-5-methyl/ofreq/"
 Entering Link 1 = /packages/apps/gaussian/g16/g16/l1.exe PID=   2087984.
  
 Copyright (c) 1988,1990,1992,1993,1995,1998,2003,2009,2016,
            Gaussian, Inc.  All Rights Reserved.
  
 This is part of the Gaussian(R) 16 program.  It is based on
 the Gaussian(R) 09 system (copyright 2009, Gaussian, Inc.),
 the Gaussian(R) 03 system (copyright 2003, Gaussian, Inc.),
 the Gaussian(R) 98 system (copyright 1998, Gaussian, Inc.),
 the Gaussian(R) 94 system (copyright 1995, Gaussian, Inc.),
 the Gaussian 92(TM) system (copyright 1992, Gaussian, Inc.),
 the Gaussian 90(TM) system (copyright 1990, Gaussian, Inc.),
 the Gaussian 88(TM) system (copyright 1988, Gaussian, Inc.),
 the Gaussian 86(TM) system (copyright 1986, Carnegie Mellon
 University), and the Gaussian 82(TM) system (copyright 1983,
 Carnegie Mellon University). Gaussian is a federally registered
 trademark of Gaussian, Inc.
  
 This software contains proprietary and confidential information,
 including trade secrets, belonging to Gaussian, Inc.
  
 This software is provided under written license and may be
 used, copied, transmitted, or stored only in accord with that
 written license.
  
 The following legend is applicable only to US Government
 contracts under FAR:
  
                    RESTRICTED RIGHTS LEGEND
  
 Use, reproduction and disclosure by the US Government is
 subject to restrictions as set forth in subparagraphs (a)
 and (c) of the Commercial Computer Software - Restricted
 Rights clause in FAR 52.227-19.
  
 Gaussian, Inc.
 340 Quinnipiac St., Bldg. 40, Wallingford CT 06492
  
  
 ---------------------------------------------------------------
 Warning -- This program may not be used in any manner that
 competes with the business of Gaussian, Inc. or will provide
 assistance to any competitor of Gaussian, Inc.  The licensee
 of this program is prohibited from giving any competitor of
 Gaussian, Inc. access to this program.  By using this program,
 the user acknowledges that Gaussian, Inc. is engaged in the
 business of creating and licensing software in the field of
 computational chemistry and represents and warrants to the
 licensee that it is not a competitor of Gaussian, Inc. and that
 it will not use this program in any manner prohibited above.
 ---------------------------------------------------------------
  

 Cite this work as:
 Gaussian 16, Revision A.03,
 M. J. Frisch, G. W. Trucks, H. B. Schlegel, G. E. Scuseria, 
 M. A. Robb, J. R. Cheeseman, G. Scalmani, V. Barone, 
 G. A. Petersson, H. Nakatsuji, X. Li, M. Caricato, A. V. Marenich, 
 J. Bloino, B. G. Janesko, R. Gomperts, B. Mennucci, H. P. Hratchian, 
 J. V. Ortiz, A. F. Izmaylov, J. L. Sonnenberg, D. Williams-Young, 
 F. Ding, F. Lipparini, F. Egidi, J. Goings, B. Peng, A. Petrone, 
 T. Henderson, D. Ranasinghe, V. G. Zakrzewski, J. Gao, N. Rega, 
 G. Zheng, W. Liang, M. Hada, M. Ehara, K. Toyota, R. Fukuda, 
 J. Hasegawa, M. Ishida, T. Nakajima, Y. Honda, O. Kitao, H. Nakai, 
 T. Vreven, K. Throssell, J. A. Montgomery, Jr., J. E. Peralta, 
 F. Ogliaro, M. J. Bearpark, J. J. Heyd, E. N. Brothers, K. N. Kudin, 
 V. N. Staroverov, T. A. Keith, R. Kobayashi, J. Normand, 
 K. Raghavachari, A. P. Rendell, J. C. Burant, S. S. Iyengar, 
 J. Tomasi, M. Cossi, J. M. Millam, M. Klene, C. Adamo, R. Cammi, 
 J. W. Ochterski, R. L. Martin, K. Morokuma, O. Farkas, 
 J. B. Foresman, and D. J. Fox, Gaussian, Inc., Wallingford CT, 2016.
 
 ******************************************
 Gaussian 16:  ES64L-G16RevA.03 25-Dec-2016
                20-Apr-2024 
 ******************************************
 %nprocshared=20
 Will use up to   20 processors via shared memory.
 %mem=14GB
 %chk=6water-ofreq.chk
 ---------------------------------------------------
 #p opt freq wb97xd/6-311+g(2d,2p) geom=connectivity
 ---------------------------------------------------
 1/18=20,19=15,26=3,38=1,57=2/1,3;
 2/9=110,12=2,17=6,18=5,40=1/2;
 3/5=4,6=6,7=212,11=2,25=1,30=1,71=1,74=-58/1,2,3;
 4//1;
 5/5=2,38=5/2;
 6/7=2,8=2,9=2,10=2,28=1/1;
 7//1,2,3,16;
 1/18=20,19=15,26=3/3(2);
 2/9=110/2;
 99//99;
 2/9=110/2;
 3/5=4,6=6,7=212,11=2,25=1,30=1,71=1,74=-58/1,2,3;
 4/5=5,16=3,69=1/1;
 5/5=2,38=5/2;
 7//1,2,3,16;
 1/18=20,19=15,26=3/3(-5);
 2/9=110/2;
 6/7=2,8=2,9=2,10=2,19=2,28=1/1;
 99/9=1/99;
 Leave Link    1 at Sat Apr 20 11:22:22 2024, MaxMem=  1879048192 cpu:               1.9 elap:               0.2
 (Enter /packages/apps/gaussian/g16/g16/l101.exe)
 --------
 Required
 --------
 Symbolic Z-matrix:
 Charge =  0 Multiplicity = 1
 C                    0     5.00536   3.3088   -2.05888  H 
 C                    0     4.75483   2.53958  -0.76087  H 
 H                    0     4.61458   4.3245   -1.99785  H 
 H                    0     6.07464   3.3653   -2.26578  H 
 H                    0     4.53159   2.81794  -2.91033  H 
 C                    0     5.25994   1.08997  -0.86591  H 
 H                    0     5.31621   3.0351    0.03649  H 
 C                    0     5.34094   0.37015   0.48367  H 
 H                    0     6.32858   0.53069   0.92216  H 
 H                    0     4.62718   0.81018   1.18333  H 
 C                    0     5.06833  -1.13722   0.40279  H 
 C                    0     5.45113  -1.83544   1.71645  H 
 C                    0     5.26829  -3.34806   1.68659  H 
 H                    0     5.59922  -3.80062   2.62122  H 
 H                    0     4.22241  -3.61697   1.53477  H 
 H                    0     5.8466   -3.79503   0.87534  H 
 C                    0     3.2934    2.54088  -0.36059  H 
 C                    0     2.31327   2.09475  -1.24576  H 
 C                    0     2.89803   2.90289   0.92234  H 
 C                    0     0.98925   1.99858  -0.86141  H 
 H                    0     2.58893   1.78621  -2.24571  H 
 C                    0     1.57161   2.79853   1.31821  H 
 H                    0     3.64161   3.24339   1.63243  H 
 C                    0     0.60144   2.34771   0.43141  H 
 H                    0     0.24818   1.62579  -1.5587   H 
 H                    0     1.29906   3.03803   2.33911  H 
 C                    0     3.626    -1.41997   0.02881  H 
 C                    0     3.30828  -2.1435   -1.11456  H 
 C                    0     2.57652  -0.97543   0.83249  H 
 C                    0     1.98877  -2.43297  -1.4342   H 
 H                    0     4.10297  -2.48576  -1.76592  H 
 C                    0     1.25932  -1.26082   0.52098  H 
 H                    0     2.78436  -0.38725   1.71718  H 
 C                    0     0.94894  -2.0123   -0.61284  H 
 H                    0     1.76807  -2.98282  -2.34152  H 
 H                    0     0.4631   -0.90295   1.16532  H 
 C                    0    -0.4812   -2.3013   -0.95957  H 
 H                    0    -1.14663  -1.49999  -0.63701  H 
 H                    0    -0.62063  -2.43685  -2.02971  H 
 C                    0    -0.81405   2.12012   0.86555  H 
 H                    0    -1.26634   1.31246   0.29877  H 
 H                    0    -0.87621   1.84069   1.91518  H 
 C                    0    -2.52702  -3.58231  -0.5991   H 
 H                    0    -2.91251  -4.55764  -0.31251  H 
 H                    0    -3.00372  -2.81066  -0.00255  H 
 H                    0    -2.68551  -3.37936  -1.65603  H 
 C                    0    -0.84644  -3.56635   1.15418  H 
 H                    0     0.2117   -3.69222   1.36326  H 
 H                    0    -1.20283  -2.62537   1.5643   H 
 H                    0    -1.42297  -4.38499   1.57605  H 
 C                    0    -0.42817  -4.7682   -0.91713  H 
 H                    0    -0.65984  -4.79353  -1.97903  H 
 H                    0     0.64711  -4.72174  -0.76828  H 
 H                    0    -0.83274  -5.65118  -0.42862  H 
 C                    0    -3.15154   2.77668   0.93796  H 
 H                    0    -3.84705   3.61031   0.94043  H 
 H                    0    -3.40471   2.07372   0.15266  H 
 H                    0    -3.17536   2.26454   1.89394  H 
 C                    0    -1.45013   4.36707   1.66091  H 
 H                    0    -1.56622   3.97141   2.66662  H 
 H                    0    -0.42838   4.70284   1.50486  H 
 H                    0    -2.1409    5.19248   1.50785  H 
 C                    0    -1.69414   3.83468  -0.69832  H 
 H                    0    -0.72366   4.29857  -0.85014  H 
 H                    0    -1.82887   3.00884  -1.39692  H 
 H                    0    -2.48629   4.57056  -0.81366  H 
 N                    0    -1.05412  -3.56301  -0.32202  H 
 N                    0    -1.76355   3.29423   0.68787  H 
 H                    0     6.24341   1.08661  -1.34169  H 
 H                    0     4.59269   0.54586  -1.53953  H 
 H                    0     4.86137  -1.40854   2.53251  H 
 H                    0     6.49472  -1.59803   1.9366   H 
 H                    0     5.7005   -1.55499  -0.38793  H 
 C                    0    -3.80688  -0.48636  -0.25747  H 
 O                    0    -4.47136  -0.97026   0.71239  H 
 O                    0    -4.34409  -0.21178  -1.38254  H 
 O                    0    -2.52655  -0.26091  -0.1119   H 
 O                    0    -5.69491   1.49384   1.51018  L 
 H                    0    -5.33033   0.59742   1.44661  L 
 H                    0    -6.1589    1.57384   0.66314  L 
 O                    0    -1.88805   1.04494  -2.3563   L 
 H                    0    -2.77116   1.13089  -2.72541  L 
 H                    0    -2.08735   0.51743  -1.53928  L 
 O                    0    -3.51019  -2.38408   2.69844  L 
 H                    0    -4.23288  -2.49997   3.31307  L 
 H                    0    -3.8844   -1.8317    1.95538  L 
 O                    0    -6.63292   1.1708   -1.17542  L 
 H                    0    -7.36528   0.5587   -1.11982  L 
 H                    0    -5.83722   0.59764  -1.2878   L 
 O                    0    -2.86231  -1.69284  -3.22483  L 
 H                    0    -3.50625  -1.25235  -2.63369  L 
 H                    0    -2.21294  -0.99748  -3.35567  L 
 O                    0    -1.49109  -0.44331   2.37909  L 
 H                    0    -1.94393  -0.36593   1.5076   L 
 H                    0    -2.09609  -1.00885   2.87667  L 
 
 Add virtual bond connecting atoms H86        and O75        Dist= 3.07D+00.
 Add virtual bond connecting atoms H83        and O77        Dist= 3.18D+00.
 Add virtual bond connecting atoms H89        and O76        Dist= 3.21D+00.
 Add virtual bond connecting atoms H94        and O77        Dist= 3.26D+00.
 Add virtual bond connecting atoms H91        and O76        Dist= 3.46D+00.
 Add virtual bond connecting atoms O77        and H38        Dist= 3.64D+00.
 Add virtual bond connecting atoms O77        and H41        Dist= 3.89D+00.
 Add virtual bond connecting atoms H79        and O75        Dist= 3.65D+00.
 Add virtual bond connecting atoms H80        and O87        Dist= 3.67D+00.
 ITRead=  0  0  0  0  0  0  0  0  0  0  0  0  0  0  0  0  0  0  0  0
 ITRead=  0  0  0  0  0  0  0  0  0  0  0  0  0  0  0  0  0  0  0  0
 ITRead=  0  0  0  0  0  0  0  0  0  0  0  0  0  0  0  0  0  0  0  0
 ITRead=  0  0  0  0  0  0  0  0  0  0  0  0  0  0  0  0  0  0  0  0
 ITRead=  0  0  0  0  0  0  0  0  0  0  0  0  0  0  0
 MicOpt= -1 -1 -1 -1 -1 -1 -1 -1 -1 -1 -1 -1 -1 -1 -1 -1 -1 -1 -1 -1
 MicOpt= -1 -1 -1 -1 -1 -1 -1 -1 -1 -1 -1 -1 -1 -1 -1 -1 -1 -1 -1 -1
 MicOpt= -1 -1 -1 -1 -1 -1 -1 -1 -1 -1 -1 -1 -1 -1 -1 -1 -1 -1 -1 -1
 MicOpt= -1 -1 -1 -1 -1 -1 -1 -1 -1 -1 -1 -1 -1 -1 -1 -1 -1 -1 -1 -1
 MicOpt= -1 -1 -1 -1 -1 -1 -1 -1 -1 -1 -1 -1 -1 -1 -1
 NAtoms=     95 NQM=       95 NQMF=       0 NMMI=      0 NMMIF=      0
                NMic=       0 NMicF=      0.
                    Isotopes and Nuclear Properties:
 (Nuclear quadrupole moments (NQMom) in fm**2, nuclear magnetic moments (NMagM)
  in nuclear magnetons)

  Atom         1           2           3           4           5           6           7           8           9          10
 IAtWgt=          12          12           1           1           1          12           1          12           1           1
 AtmWgt=  12.0000000  12.0000000   1.0078250   1.0078250   1.0078250  12.0000000   1.0078250  12.0000000   1.0078250   1.0078250
 NucSpn=           0           0           1           1           1           0           1           0           1           1
 AtZEff=  -0.0000000  -0.0000000  -0.0000000  -0.0000000  -0.0000000  -0.0000000  -0.0000000  -0.0000000  -0.0000000  -0.0000000
 NQMom=    0.0000000   0.0000000   0.0000000   0.0000000   0.0000000   0.0000000   0.0000000   0.0000000   0.0000000   0.0000000
 NMagM=    0.0000000   0.0000000   2.7928460   2.7928460   2.7928460   0.0000000   2.7928460   0.0000000   2.7928460   2.7928460
 AtZNuc=   6.0000000   6.0000000   1.0000000   1.0000000   1.0000000   6.0000000   1.0000000   6.0000000   1.0000000   1.0000000

  Atom        11          12          13          14          15          16          17          18          19          20
 IAtWgt=          12          12          12           1           1           1          12          12          12          12
 AtmWgt=  12.0000000  12.0000000  12.0000000   1.0078250   1.0078250   1.0078250  12.0000000  12.0000000  12.0000000  12.0000000
 NucSpn=           0           0           0           1           1           1           0           0           0           0
 AtZEff=  -0.0000000  -0.0000000  -0.0000000  -0.0000000  -0.0000000  -0.0000000  -0.0000000  -0.0000000  -0.0000000  -0.0000000
 NQMom=    0.0000000   0.0000000   0.0000000   0.0000000   0.0000000   0.0000000   0.0000000   0.0000000   0.0000000   0.0000000
 NMagM=    0.0000000   0.0000000   0.0000000   2.7928460   2.7928460   2.7928460   0.0000000   0.0000000   0.0000000   0.0000000
 AtZNuc=   6.0000000   6.0000000   6.0000000   1.0000000   1.0000000   1.0000000   6.0000000   6.0000000   6.0000000   6.0000000

  Atom        21          22          23          24          25          26          27          28          29          30
 IAtWgt=           1          12           1          12           1           1          12          12          12          12
 AtmWgt=   1.0078250  12.0000000   1.0078250  12.0000000   1.0078250   1.0078250  12.0000000  12.0000000  12.0000000  12.0000000
 NucSpn=           1           0           1           0           1           1           0           0           0           0
 AtZEff=  -0.0000000  -0.0000000  -0.0000000  -0.0000000  -0.0000000  -0.0000000  -0.0000000  -0.0000000  -0.0000000  -0.0000000
 NQMom=    0.0000000   0.0000000   0.0000000   0.0000000   0.0000000   0.0000000   0.0000000   0.0000000   0.0000000   0.0000000
 NMagM=    2.7928460   0.0000000   2.7928460   0.0000000   2.7928460   2.7928460   0.0000000   0.0000000   0.0000000   0.0000000
 AtZNuc=   1.0000000   6.0000000   1.0000000   6.0000000   1.0000000   1.0000000   6.0000000   6.0000000   6.0000000   6.0000000

  Atom        31          32          33          34          35          36          37          38          39          40
 IAtWgt=           1          12           1          12           1           1          12           1           1          12
 AtmWgt=   1.0078250  12.0000000   1.0078250  12.0000000   1.0078250   1.0078250  12.0000000   1.0078250   1.0078250  12.0000000
 NucSpn=           1           0           1           0           1           1           0           1           1           0
 AtZEff=  -0.0000000  -0.0000000  -0.0000000  -0.0000000  -0.0000000  -0.0000000  -0.0000000  -0.0000000  -0.0000000  -0.0000000
 NQMom=    0.0000000   0.0000000   0.0000000   0.0000000   0.0000000   0.0000000   0.0000000   0.0000000   0.0000000   0.0000000
 NMagM=    2.7928460   0.0000000   2.7928460   0.0000000   2.7928460   2.7928460   0.0000000   2.7928460   2.7928460   0.0000000
 AtZNuc=   1.0000000   6.0000000   1.0000000   6.0000000   1.0000000   1.0000000   6.0000000   1.0000000   1.0000000   6.0000000

  Atom        41          42          43          44          45          46          47          48          49          50
 IAtWgt=           1           1          12           1           1           1          12           1           1           1
 AtmWgt=   1.0078250   1.0078250  12.0000000   1.0078250   1.0078250   1.0078250  12.0000000   1.0078250   1.0078250   1.0078250
 NucSpn=           1           1           0           1           1           1           0           1           1           1
 AtZEff=  -0.0000000  -0.0000000  -0.0000000  -0.0000000  -0.0000000  -0.0000000  -0.0000000  -0.0000000  -0.0000000  -0.0000000
 NQMom=    0.0000000   0.0000000   0.0000000   0.0000000   0.0000000   0.0000000   0.0000000   0.0000000   0.0000000   0.0000000
 NMagM=    2.7928460   2.7928460   0.0000000   2.7928460   2.7928460   2.7928460   0.0000000   2.7928460   2.7928460   2.7928460
 AtZNuc=   1.0000000   1.0000000   6.0000000   1.0000000   1.0000000   1.0000000   6.0000000   1.0000000   1.0000000   1.0000000

  Atom        51          52          53          54          55          56          57          58          59          60
 IAtWgt=          12           1           1           1          12           1           1           1          12           1
 AtmWgt=  12.0000000   1.0078250   1.0078250   1.0078250  12.0000000   1.0078250   1.0078250   1.0078250  12.0000000   1.0078250
 NucSpn=           0           1           1           1           0           1           1           1           0           1
 AtZEff=  -0.0000000  -0.0000000  -0.0000000  -0.0000000  -0.0000000  -0.0000000  -0.0000000  -0.0000000  -0.0000000  -0.0000000
 NQMom=    0.0000000   0.0000000   0.0000000   0.0000000   0.0000000   0.0000000   0.0000000   0.0000000   0.0000000   0.0000000
 NMagM=    0.0000000   2.7928460   2.7928460   2.7928460   0.0000000   2.7928460   2.7928460   2.7928460   0.0000000   2.7928460
 AtZNuc=   6.0000000   1.0000000   1.0000000   1.0000000   6.0000000   1.0000000   1.0000000   1.0000000   6.0000000   1.0000000

  Atom        61          62          63          64          65          66          67          68          69          70
 IAtWgt=           1           1          12           1           1           1          14          14           1           1
 AtmWgt=   1.0078250   1.0078250  12.0000000   1.0078250   1.0078250   1.0078250  14.0030740  14.0030740   1.0078250   1.0078250
 NucSpn=           1           1           0           1           1           1           2           2           1           1
 AtZEff=  -0.0000000  -0.0000000  -0.0000000  -0.0000000  -0.0000000  -0.0000000  -0.0000000  -0.0000000  -0.0000000  -0.0000000
 NQMom=    0.0000000   0.0000000   0.0000000   0.0000000   0.0000000   0.0000000   2.0440000   2.0440000   0.0000000   0.0000000
 NMagM=    2.7928460   2.7928460   0.0000000   2.7928460   2.7928460   2.7928460   0.4037610   0.4037610   2.7928460   2.7928460
 AtZNuc=   1.0000000   1.0000000   6.0000000   1.0000000   1.0000000   1.0000000   7.0000000   7.0000000   1.0000000   1.0000000

  Atom        71          72          73          74          75          76          77          78          79          80
 IAtWgt=           1           1           1          12          16          16          16          16           1           1
 AtmWgt=   1.0078250   1.0078250   1.0078250  12.0000000  15.9949146  15.9949146  15.9949146  15.9949146   1.0078250   1.0078250
 NucSpn=           1           1           1           0           0           0           0           0           1           1
 AtZEff=  -0.0000000  -0.0000000  -0.0000000  -0.0000000  -0.0000000  -0.0000000  -0.0000000  -0.0000000  -0.0000000  -0.0000000
 NQMom=    0.0000000   0.0000000   0.0000000   0.0000000   0.0000000   0.0000000   0.0000000   0.0000000   0.0000000   0.0000000
 NMagM=    2.7928460   2.7928460   2.7928460   0.0000000   0.0000000   0.0000000   0.0000000   0.0000000   2.7928460   2.7928460
 AtZNuc=   1.0000000   1.0000000   1.0000000   6.0000000   8.0000000   8.0000000   8.0000000   8.0000000   1.0000000   1.0000000

  Atom        81          82          83          84          85          86          87          88          89          90
 IAtWgt=          16           1           1          16           1           1          16           1           1          16
 AtmWgt=  15.9949146   1.0078250   1.0078250  15.9949146   1.0078250   1.0078250  15.9949146   1.0078250   1.0078250  15.9949146
 NucSpn=           0           1           1           0           1           1           0           1           1           0
 AtZEff=  -0.0000000  -0.0000000  -0.0000000  -0.0000000  -0.0000000  -0.0000000  -0.0000000  -0.0000000  -0.0000000  -0.0000000
 NQMom=    0.0000000   0.0000000   0.0000000   0.0000000   0.0000000   0.0000000   0.0000000   0.0000000   0.0000000   0.0000000
 NMagM=    0.0000000   2.7928460   2.7928460   0.0000000   2.7928460   2.7928460   0.0000000   2.7928460   2.7928460   0.0000000
 AtZNuc=   8.0000000   1.0000000   1.0000000   8.0000000   1.0000000   1.0000000   8.0000000   1.0000000   1.0000000   8.0000000

  Atom        91          92          93          94          95
 IAtWgt=           1           1          16           1           1
 AtmWgt=   1.0078250   1.0078250  15.9949146   1.0078250   1.0078250
 NucSpn=           1           1           0           1           1
 AtZEff=  -0.0000000  -0.0000000  -0.0000000  -0.0000000  -0.0000000
 NQMom=    0.0000000   0.0000000   0.0000000   0.0000000   0.0000000
 NMagM=    2.7928460   2.7928460   0.0000000   2.7928460   2.7928460
 AtZNuc=   1.0000000   1.0000000   8.0000000   1.0000000   1.0000000
 Leave Link  101 at Sat Apr 20 11:22:22 2024, MaxMem=  1879048192 cpu:               4.9 elap:               0.4
 (Enter /packages/apps/gaussian/g16/g16/l103.exe)

 GradGradGradGradGradGradGradGradGradGradGradGradGradGradGradGradGradGrad
 Berny optimization.
 Initialization pass.
                           ----------------------------
                           !    Initial Parameters    !
                           ! (Angstroms and Degrees)  !
 --------------------------                            --------------------------
 ! Name  Definition              Value          Derivative Info.                !
 --------------------------------------------------------------------------------
 ! R1    R(1,2)                  1.5295         estimate D2E/DX2                !
 ! R2    R(1,3)                  1.09           estimate D2E/DX2                !
 ! R3    R(1,4)                  1.0906         estimate D2E/DX2                !
 ! R4    R(1,5)                  1.091          estimate D2E/DX2                !
 ! R5    R(2,6)                  1.5387         estimate D2E/DX2                !
 ! R6    R(2,7)                  1.0938         estimate D2E/DX2                !
 ! R7    R(2,17)                 1.5153         estimate D2E/DX2                !
 ! R8    R(6,8)                  1.5317         estimate D2E/DX2                !
 ! R9    R(6,69)                 1.0925         estimate D2E/DX2                !
 ! R10   R(6,70)                 1.0932         estimate D2E/DX2                !
 ! R11   R(8,9)                  1.0925         estimate D2E/DX2                !
 ! R12   R(8,10)                 1.0921         estimate D2E/DX2                !
 ! R13   R(8,11)                 1.534          estimate D2E/DX2                !
 ! R14   R(11,12)                1.5361         estimate D2E/DX2                !
 ! R15   R(11,27)                1.5166         estimate D2E/DX2                !
 ! R16   R(11,73)                1.0952         estimate D2E/DX2                !
 ! R17   R(12,13)                1.5239         estimate D2E/DX2                !
 ! R18   R(12,71)                1.0936         estimate D2E/DX2                !
 ! R19   R(12,72)                1.0927         estimate D2E/DX2                !
 ! R20   R(13,14)                1.0899         estimate D2E/DX2                !
 ! R21   R(13,15)                1.0905         estimate D2E/DX2                !
 ! R22   R(13,16)                1.0919         estimate D2E/DX2                !
 ! R23   R(17,18)                1.394          estimate D2E/DX2                !
 ! R24   R(17,19)                1.3904         estimate D2E/DX2                !
 ! R25   R(18,20)                1.382          estimate D2E/DX2                !
 ! R26   R(18,21)                1.0822         estimate D2E/DX2                !
 ! R27   R(19,22)                1.3882         estimate D2E/DX2                !
 ! R28   R(19,23)                1.0831         estimate D2E/DX2                !
 ! R29   R(20,24)                1.3942         estimate D2E/DX2                !
 ! R30   R(20,25)                1.0837         estimate D2E/DX2                !
 ! R31   R(22,24)                1.3896         estimate D2E/DX2                !
 ! R32   R(22,26)                1.0835         estimate D2E/DX2                !
 ! R33   R(24,40)                1.498          estimate D2E/DX2                !
 ! R34   R(27,28)                1.3899         estimate D2E/DX2                !
 ! R35   R(27,29)                1.3946         estimate D2E/DX2                !
 ! R36   R(28,30)                1.3882         estimate D2E/DX2                !
 ! R37   R(28,31)                1.083          estimate D2E/DX2                !
 ! R38   R(29,32)                1.3833         estimate D2E/DX2                !
 ! R39   R(29,33)                1.0825         estimate D2E/DX2                !
 ! R40   R(30,34)                1.3903         estimate D2E/DX2                !
 ! R41   R(30,35)                1.0836         estimate D2E/DX2                !
 ! R42   R(32,34)                1.3952         estimate D2E/DX2                !
 ! R43   R(32,36)                1.085          estimate D2E/DX2                !
 ! R44   R(34,37)                1.4997         estimate D2E/DX2                !
 ! R45   R(37,38)                1.0904         estimate D2E/DX2                !
 ! R46   R(37,39)                1.0877         estimate D2E/DX2                !
 ! R47   R(37,67)                1.5253         estimate D2E/DX2                !
 ! R48   R(38,77)                1.9275         estimate D2E/DX2                !
 ! R49   R(40,41)                1.0854         estimate D2E/DX2                !
 ! R50   R(40,42)                1.088          estimate D2E/DX2                !
 ! R51   R(40,68)                1.5204         estimate D2E/DX2                !
 ! R52   R(41,77)                2.0572         estimate D2E/DX2                !
 ! R53   R(43,44)                1.0872         estimate D2E/DX2                !
 ! R54   R(43,45)                1.0856         estimate D2E/DX2                !
 ! R55   R(43,46)                1.0879         estimate D2E/DX2                !
 ! R56   R(43,67)                1.4989         estimate D2E/DX2                !
 ! R57   R(47,48)                1.0859         estimate D2E/DX2                !
 ! R58   R(47,49)                1.0866         estimate D2E/DX2                !
 ! R59   R(47,50)                1.0865         estimate D2E/DX2                !
 ! R60   R(47,67)                1.4907         estimate D2E/DX2                !
 ! R61   R(51,52)                1.0872         estimate D2E/DX2                !
 ! R62   R(51,53)                1.0865         estimate D2E/DX2                !
 ! R63   R(51,54)                1.0872         estimate D2E/DX2                !
 ! R64   R(51,67)                1.4827         estimate D2E/DX2                !
 ! R65   R(55,56)                1.0857         estimate D2E/DX2                !
 ! R66   R(55,57)                1.0839         estimate D2E/DX2                !
 ! R67   R(55,58)                1.0848         estimate D2E/DX2                !
 ! R68   R(55,68)                1.5023         estimate D2E/DX2                !
 ! R69   R(59,60)                1.087          estimate D2E/DX2                !
 ! R70   R(59,61)                1.0868         estimate D2E/DX2                !
 ! R71   R(59,62)                1.0872         estimate D2E/DX2                !
 ! R72   R(59,68)                1.4819         estimate D2E/DX2                !
 ! R73   R(63,64)                1.0863         estimate D2E/DX2                !
 ! R74   R(63,65)                1.09           estimate D2E/DX2                !
 ! R75   R(63,66)                1.0873         estimate D2E/DX2                !
 ! R76   R(63,68)                1.4894         estimate D2E/DX2                !
 ! R77   R(74,75)                1.2713         estimate D2E/DX2                !
 ! R78   R(74,76)                1.2766         estimate D2E/DX2                !
 ! R79   R(74,77)                1.3082         estimate D2E/DX2                !
 ! R80   R(75,79)                1.9325         estimate D2E/DX2                !
 ! R81   R(75,86)                1.6222         estimate D2E/DX2                !
 ! R82   R(76,89)                1.7011         estimate D2E/DX2                !
 ! R83   R(76,91)                1.8303         estimate D2E/DX2                !
 ! R84   R(77,83)                1.6841         estimate D2E/DX2                !
 ! R85   R(77,94)                1.7243         estimate D2E/DX2                !
 ! R86   R(78,79)                0.9698         estimate D2E/DX2                !
 ! R87   R(78,80)                0.9691         estimate D2E/DX2                !
 ! R88   R(80,87)                1.941          estimate D2E/DX2                !
 ! R89   R(81,82)                0.961          estimate D2E/DX2                !
 ! R90   R(81,83)                0.9927         estimate D2E/DX2                !
 ! R91   R(84,85)                0.9558         estimate D2E/DX2                !
 ! R92   R(84,86)                0.9986         estimate D2E/DX2                !
 ! R93   R(87,88)                0.9561         estimate D2E/DX2                !
 ! R94   R(87,89)                0.9871         estimate D2E/DX2                !
 ! R95   R(90,91)                0.9789         estimate D2E/DX2                !
 ! R96   R(90,92)                0.9604         estimate D2E/DX2                !
 ! R97   R(93,94)                0.9852         estimate D2E/DX2                !
 ! R98   R(93,95)                0.9662         estimate D2E/DX2                !
 ! A1    A(2,1,3)              111.2482         estimate D2E/DX2                !
 ! A2    A(2,1,4)              110.3444         estimate D2E/DX2                !
 ! A3    A(2,1,5)              111.4012         estimate D2E/DX2                !
 ! A4    A(3,1,4)              108.2927         estimate D2E/DX2                !
 ! A5    A(3,1,5)              107.8935         estimate D2E/DX2                !
 ! A6    A(4,1,5)              107.5183         estimate D2E/DX2                !
 ! A7    A(1,2,6)              111.2301         estimate D2E/DX2                !
 ! A8    A(1,2,7)              107.8624         estimate D2E/DX2                !
 ! A9    A(1,2,17)             112.4419         estimate D2E/DX2                !
 ! A10   A(6,2,7)              107.9431         estimate D2E/DX2                !
 ! A11   A(6,2,17)             109.6003         estimate D2E/DX2                !
 ! A12   A(7,2,17)             107.5798         estimate D2E/DX2                !
 ! A13   A(2,6,8)              113.5753         estimate D2E/DX2                !
 ! A14   A(2,6,69)             109.1557         estimate D2E/DX2                !
 ! A15   A(2,6,70)             108.0961         estimate D2E/DX2                !
 ! A16   A(8,6,69)             109.5519         estimate D2E/DX2                !
 ! A17   A(8,6,70)             109.9567         estimate D2E/DX2                !
 ! A18   A(69,6,70)            106.235          estimate D2E/DX2                !
 ! A19   A(6,8,9)              109.4148         estimate D2E/DX2                !
 ! A20   A(6,8,10)             109.9125         estimate D2E/DX2                !
 ! A21   A(6,8,11)             113.9504         estimate D2E/DX2                !
 ! A22   A(9,8,10)             105.933          estimate D2E/DX2                !
 ! A23   A(9,8,11)             109.0402         estimate D2E/DX2                !
 ! A24   A(10,8,11)            108.2749         estimate D2E/DX2                !
 ! A25   A(8,11,12)            110.9327         estimate D2E/DX2                !
 ! A26   A(8,11,27)            111.4209         estimate D2E/DX2                !
 ! A27   A(8,11,73)            108.0799         estimate D2E/DX2                !
 ! A28   A(12,11,27)           111.2923         estimate D2E/DX2                !
 ! A29   A(12,11,73)           107.4696         estimate D2E/DX2                !
 ! A30   A(27,11,73)           107.4456         estimate D2E/DX2                !
 ! A31   A(11,12,13)           113.8595         estimate D2E/DX2                !
 ! A32   A(11,12,71)           109.0447         estimate D2E/DX2                !
 ! A33   A(11,12,72)           108.1522         estimate D2E/DX2                !
 ! A34   A(13,12,71)           109.7174         estimate D2E/DX2                !
 ! A35   A(13,12,72)           109.524          estimate D2E/DX2                !
 ! A36   A(71,12,72)           106.2548         estimate D2E/DX2                !
 ! A37   A(12,13,14)           111.0336         estimate D2E/DX2                !
 ! A38   A(12,13,15)           111.2574         estimate D2E/DX2                !
 ! A39   A(12,13,16)           110.9353         estimate D2E/DX2                !
 ! A40   A(14,13,15)           107.9502         estimate D2E/DX2                !
 ! A41   A(14,13,16)           107.8382         estimate D2E/DX2                !
 ! A42   A(15,13,16)           107.6725         estimate D2E/DX2                !
 ! A43   A(2,17,18)            120.6712         estimate D2E/DX2                !
 ! A44   A(2,17,19)            121.2135         estimate D2E/DX2                !
 ! A45   A(18,17,19)           117.9881         estimate D2E/DX2                !
 ! A46   A(17,18,20)           121.2836         estimate D2E/DX2                !
 ! A47   A(17,18,21)           119.9271         estimate D2E/DX2                !
 ! A48   A(20,18,21)           118.7616         estimate D2E/DX2                !
 ! A49   A(17,19,22)           121.0152         estimate D2E/DX2                !
 ! A50   A(17,19,23)           119.443          estimate D2E/DX2                !
 ! A51   A(22,19,23)           119.5163         estimate D2E/DX2                !
 ! A52   A(18,20,24)           120.4616         estimate D2E/DX2                !
 ! A53   A(18,20,25)           120.0092         estimate D2E/DX2                !
 ! A54   A(24,20,25)           119.5109         estimate D2E/DX2                !
 ! A55   A(19,22,24)           120.6324         estimate D2E/DX2                !
 ! A56   A(19,22,26)           119.5023         estimate D2E/DX2                !
 ! A57   A(24,22,26)           119.8296         estimate D2E/DX2                !
 ! A58   A(20,24,22)           118.6087         estimate D2E/DX2                !
 ! A59   A(20,24,40)           119.5754         estimate D2E/DX2                !
 ! A60   A(22,24,40)           121.6062         estimate D2E/DX2                !
 ! A61   A(11,27,28)           121.1518         estimate D2E/DX2                !
 ! A62   A(11,27,29)           120.9394         estimate D2E/DX2                !
 ! A63   A(28,27,29)           117.9039         estimate D2E/DX2                !
 ! A64   A(27,28,30)           121.0145         estimate D2E/DX2                !
 ! A65   A(27,28,31)           119.4419         estimate D2E/DX2                !
 ! A66   A(30,28,31)           119.5436         estimate D2E/DX2                !
 ! A67   A(27,29,32)           121.4017         estimate D2E/DX2                !
 ! A68   A(27,29,33)           119.9795         estimate D2E/DX2                !
 ! A69   A(32,29,33)           118.6171         estimate D2E/DX2                !
 ! A70   A(28,30,34)           120.7843         estimate D2E/DX2                !
 ! A71   A(28,30,35)           119.4842         estimate D2E/DX2                !
 ! A72   A(34,30,35)           119.7271         estimate D2E/DX2                !
 ! A73   A(29,32,34)           120.3948         estimate D2E/DX2                !
 ! A74   A(29,32,36)           119.802          estimate D2E/DX2                !
 ! A75   A(34,32,36)           119.8023         estimate D2E/DX2                !
 ! A76   A(30,34,32)           118.4698         estimate D2E/DX2                !
 ! A77   A(30,34,37)           121.2219         estimate D2E/DX2                !
 ! A78   A(32,34,37)           120.2535         estimate D2E/DX2                !
 ! A79   A(34,37,38)           111.8362         estimate D2E/DX2                !
 ! A80   A(34,37,39)           111.9463         estimate D2E/DX2                !
 ! A81   A(34,37,67)           114.8948         estimate D2E/DX2                !
 ! A82   A(38,37,39)           107.7231         estimate D2E/DX2                !
 ! A83   A(38,37,67)           104.7744         estimate D2E/DX2                !
 ! A84   A(39,37,67)           105.0704         estimate D2E/DX2                !
 ! A85   A(24,40,41)           110.8221         estimate D2E/DX2                !
 ! A86   A(24,40,42)           111.8776         estimate D2E/DX2                !
 ! A87   A(24,40,68)           116.0354         estimate D2E/DX2                !
 ! A88   A(41,40,42)           106.7893         estimate D2E/DX2                !
 ! A89   A(41,40,68)           104.6774         estimate D2E/DX2                !
 ! A90   A(42,40,68)           105.9857         estimate D2E/DX2                !
 ! A91   A(40,41,77)           158.2147         estimate D2E/DX2                !
 ! A92   A(44,43,45)           109.7016         estimate D2E/DX2                !
 ! A93   A(44,43,46)           111.8278         estimate D2E/DX2                !
 ! A94   A(44,43,67)           108.1349         estimate D2E/DX2                !
 ! A95   A(45,43,46)           109.7129         estimate D2E/DX2                !
 ! A96   A(45,43,67)           108.7089         estimate D2E/DX2                !
 ! A97   A(46,43,67)           108.685          estimate D2E/DX2                !
 ! A98   A(48,47,49)           110.3236         estimate D2E/DX2                !
 ! A99   A(48,47,50)           110.7906         estimate D2E/DX2                !
 ! A100  A(48,47,67)           109.0667         estimate D2E/DX2                !
 ! A101  A(49,47,50)           109.3843         estimate D2E/DX2                !
 ! A102  A(49,47,67)           109.0337         estimate D2E/DX2                !
 ! A103  A(50,47,67)           108.1943         estimate D2E/DX2                !
 ! A104  A(52,51,53)           110.2244         estimate D2E/DX2                !
 ! A105  A(52,51,54)           109.9178         estimate D2E/DX2                !
 ! A106  A(52,51,67)           108.7241         estimate D2E/DX2                !
 ! A107  A(53,51,54)           109.965          estimate D2E/DX2                !
 ! A108  A(53,51,67)           109.1503         estimate D2E/DX2                !
 ! A109  A(54,51,67)           108.8267         estimate D2E/DX2                !
 ! A110  A(56,55,57)           110.487          estimate D2E/DX2                !
 ! A111  A(56,55,58)           110.2697         estimate D2E/DX2                !
 ! A112  A(56,55,68)           109.1313         estimate D2E/DX2                !
 ! A113  A(57,55,58)           109.0966         estimate D2E/DX2                !
 ! A114  A(57,55,68)           108.5781         estimate D2E/DX2                !
 ! A115  A(58,55,68)           109.2461         estimate D2E/DX2                !
 ! A116  A(60,59,61)           110.2265         estimate D2E/DX2                !
 ! A117  A(60,59,62)           109.8023         estimate D2E/DX2                !
 ! A118  A(60,59,68)           108.7489         estimate D2E/DX2                !
 ! A119  A(61,59,62)           110.035          estimate D2E/DX2                !
 ! A120  A(61,59,68)           109.1615         estimate D2E/DX2                !
 ! A121  A(62,59,68)           108.8344         estimate D2E/DX2                !
 ! A122  A(64,63,65)           110.1441         estimate D2E/DX2                !
 ! A123  A(64,63,66)           110.3049         estimate D2E/DX2                !
 ! A124  A(64,63,68)           109.0657         estimate D2E/DX2                !
 ! A125  A(65,63,66)           110.7748         estimate D2E/DX2                !
 ! A126  A(65,63,68)           108.4088         estimate D2E/DX2                !
 ! A127  A(66,63,68)           108.0797         estimate D2E/DX2                !
 ! A128  A(37,67,43)           107.6071         estimate D2E/DX2                !
 ! A129  A(37,67,47)           111.3105         estimate D2E/DX2                !
 ! A130  A(37,67,51)           110.244          estimate D2E/DX2                !
 ! A131  A(43,67,47)           108.6588         estimate D2E/DX2                !
 ! A132  A(43,67,51)           109.2802         estimate D2E/DX2                !
 ! A133  A(47,67,51)           109.6829         estimate D2E/DX2                !
 ! A134  A(40,68,55)           106.9474         estimate D2E/DX2                !
 ! A135  A(40,68,59)           110.5029         estimate D2E/DX2                !
 ! A136  A(40,68,63)           111.0918         estimate D2E/DX2                !
 ! A137  A(55,68,59)           109.6033         estimate D2E/DX2                !
 ! A138  A(55,68,63)           108.8436         estimate D2E/DX2                !
 ! A139  A(59,68,63)           109.7886         estimate D2E/DX2                !
 ! A140  A(75,74,76)           122.2912         estimate D2E/DX2                !
 ! A141  A(75,74,77)           119.4887         estimate D2E/DX2                !
 ! A142  A(76,74,77)           118.2198         estimate D2E/DX2                !
 ! A143  A(74,75,79)           102.3207         estimate D2E/DX2                !
 ! A144  A(74,75,86)           126.6934         estimate D2E/DX2                !
 ! A145  A(79,75,86)           107.4868         estimate D2E/DX2                !
 ! A146  A(74,76,89)           115.0006         estimate D2E/DX2                !
 ! A147  A(74,76,91)           106.7092         estimate D2E/DX2                !
 ! A148  A(89,76,91)           135.2667         estimate D2E/DX2                !
 ! A149  A(38,77,41)            96.1698         estimate D2E/DX2                !
 ! A150  A(38,77,74)           124.027          estimate D2E/DX2                !
 ! A151  A(38,77,83)            83.0787         estimate D2E/DX2                !
 ! A152  A(38,77,94)            88.5573         estimate D2E/DX2                !
 ! A153  A(41,77,74)           138.8999         estimate D2E/DX2                !
 ! A154  A(41,77,83)            69.8774         estimate D2E/DX2                !
 ! A155  A(41,77,94)            69.6419         estimate D2E/DX2                !
 ! A156  A(74,77,83)           103.9211         estimate D2E/DX2                !
 ! A157  A(74,77,94)           115.1326         estimate D2E/DX2                !
 ! A158  A(83,77,94)           137.3989         estimate D2E/DX2                !
 ! A159  A(79,78,80)           101.4783         estimate D2E/DX2                !
 ! A160  A(75,79,78)           160.3618         estimate D2E/DX2                !
 ! A161  A(78,80,87)           158.0799         estimate D2E/DX2                !
 ! A162  A(82,81,83)           100.3203         estimate D2E/DX2                !
 ! A163  A(85,84,86)           105.2021         estimate D2E/DX2                !
 ! A164  A(80,87,88)           105.3625         estimate D2E/DX2                !
 ! A165  A(80,87,89)            91.8082         estimate D2E/DX2                !
 ! A166  A(88,87,89)           104.6168         estimate D2E/DX2                !
 ! A167  A(91,90,92)           101.6106         estimate D2E/DX2                !
 ! A168  A(94,93,95)           102.3409         estimate D2E/DX2                !
 ! A169  L(37,38,77,1,-1)      187.7379         estimate D2E/DX2                !
 ! A170  L(77,83,81,2,-1)      182.0868         estimate D2E/DX2                !
 ! A171  L(75,86,84,1,-1)      179.5195         estimate D2E/DX2                !
 ! A172  L(76,89,87,55,-1)     172.1266         estimate D2E/DX2                !
 ! A173  L(76,91,90,1,-1)      166.0837         estimate D2E/DX2                !
 ! A174  L(77,94,93,1,-1)      173.4933         estimate D2E/DX2                !
 ! A175  L(37,38,77,1,-2)      177.4227         estimate D2E/DX2                !
 ! A176  L(77,83,81,2,-2)      185.2136         estimate D2E/DX2                !
 ! A177  L(75,86,84,1,-2)      181.9312         estimate D2E/DX2                !
 ! A178  L(76,89,87,55,-2)     178.4943         estimate D2E/DX2                !
 ! A179  L(76,91,90,1,-2)      177.5438         estimate D2E/DX2                !
 ! A180  L(77,94,93,1,-2)      184.1706         estimate D2E/DX2                !
 ! D1    D(3,1,2,6)            177.8964         estimate D2E/DX2                !
 ! D2    D(3,1,2,7)            -63.9112         estimate D2E/DX2                !
 ! D3    D(3,1,2,17)            54.5418         estimate D2E/DX2                !
 ! D4    D(4,1,2,6)            -61.8816         estimate D2E/DX2                !
 ! D5    D(4,1,2,7)             56.3107         estimate D2E/DX2                !
 ! D6    D(4,1,2,17)           174.7637         estimate D2E/DX2                !
 ! D7    D(5,1,2,6)             57.4676         estimate D2E/DX2                !
 ! D8    D(5,1,2,7)            175.66           estimate D2E/DX2                !
 ! D9    D(5,1,2,17)           -65.8871         estimate D2E/DX2                !
 ! D10   D(1,2,6,8)            166.47           estimate D2E/DX2                !
 ! D11   D(1,2,6,69)            43.914          estimate D2E/DX2                !
 ! D12   D(1,2,6,70)           -71.229          estimate D2E/DX2                !
 ! D13   D(7,2,6,8)             48.3262         estimate D2E/DX2                !
 ! D14   D(7,2,6,69)           -74.2298         estimate D2E/DX2                !
 ! D15   D(7,2,6,70)           170.6272         estimate D2E/DX2                !
 ! D16   D(17,2,6,8)           -68.5659         estimate D2E/DX2                !
 ! D17   D(17,2,6,69)          168.8781         estimate D2E/DX2                !
 ! D18   D(17,2,6,70)           53.7351         estimate D2E/DX2                !
 ! D19   D(1,2,17,18)           54.8664         estimate D2E/DX2                !
 ! D20   D(1,2,17,19)         -129.317          estimate D2E/DX2                !
 ! D21   D(6,2,17,18)          -69.3941         estimate D2E/DX2                !
 ! D22   D(6,2,17,19)          106.4225         estimate D2E/DX2                !
 ! D23   D(7,2,17,18)          173.4855         estimate D2E/DX2                !
 ! D24   D(7,2,17,19)          -10.698          estimate D2E/DX2                !
 ! D25   D(2,6,8,9)            -89.8665         estimate D2E/DX2                !
 ! D26   D(2,6,8,10)            26.0616         estimate D2E/DX2                !
 ! D27   D(2,6,8,11)           147.7867         estimate D2E/DX2                !
 ! D28   D(69,6,8,9)            32.4706         estimate D2E/DX2                !
 ! D29   D(69,6,8,10)          148.3987         estimate D2E/DX2                !
 ! D30   D(69,6,8,11)          -89.8762         estimate D2E/DX2                !
 ! D31   D(70,6,8,9)           148.8681         estimate D2E/DX2                !
 ! D32   D(70,6,8,10)          -95.2038         estimate D2E/DX2                !
 ! D33   D(70,6,8,11)           26.5213         estimate D2E/DX2                !
 ! D34   D(6,8,11,12)          168.1021         estimate D2E/DX2                !
 ! D35   D(6,8,11,27)          -67.3077         estimate D2E/DX2                !
 ! D36   D(6,8,11,73)           50.5223         estimate D2E/DX2                !
 ! D37   D(9,8,11,12)           45.5497         estimate D2E/DX2                !
 ! D38   D(9,8,11,27)          170.1399         estimate D2E/DX2                !
 ! D39   D(9,8,11,73)          -72.0301         estimate D2E/DX2                !
 ! D40   D(10,8,11,12)         -69.2718         estimate D2E/DX2                !
 ! D41   D(10,8,11,27)          55.3184         estimate D2E/DX2                !
 ! D42   D(10,8,11,73)         173.1484         estimate D2E/DX2                !
 ! D43   D(8,11,12,13)        -177.283          estimate D2E/DX2                !
 ! D44   D(8,11,12,71)          59.8323         estimate D2E/DX2                !
 ! D45   D(8,11,12,72)         -55.3059         estimate D2E/DX2                !
 ! D46   D(27,11,12,13)         58.054          estimate D2E/DX2                !
 ! D47   D(27,11,12,71)        -64.8307         estimate D2E/DX2                !
 ! D48   D(27,11,12,72)       -179.9689         estimate D2E/DX2                !
 ! D49   D(73,11,12,13)        -59.3315         estimate D2E/DX2                !
 ! D50   D(73,11,12,71)        177.7838         estimate D2E/DX2                !
 ! D51   D(73,11,12,72)         62.6455         estimate D2E/DX2                !
 ! D52   D(8,11,27,28)         120.6905         estimate D2E/DX2                !
 ! D53   D(8,11,27,29)         -60.1309         estimate D2E/DX2                !
 ! D54   D(12,11,27,28)       -114.9214         estimate D2E/DX2                !
 ! D55   D(12,11,27,29)         64.2572         estimate D2E/DX2                !
 ! D56   D(73,11,27,28)          2.4787         estimate D2E/DX2                !
 ! D57   D(73,11,27,29)       -178.3428         estimate D2E/DX2                !
 ! D58   D(11,12,13,14)        177.1709         estimate D2E/DX2                !
 ! D59   D(11,12,13,15)        -62.5712         estimate D2E/DX2                !
 ! D60   D(11,12,13,16)         57.2696         estimate D2E/DX2                !
 ! D61   D(71,12,13,14)        -60.3131         estimate D2E/DX2                !
 ! D62   D(71,12,13,15)         59.9448         estimate D2E/DX2                !
 ! D63   D(71,12,13,16)        179.7857         estimate D2E/DX2                !
 ! D64   D(72,12,13,14)         55.9547         estimate D2E/DX2                !
 ! D65   D(72,12,13,15)        176.2126         estimate D2E/DX2                !
 ! D66   D(72,12,13,16)        -63.9466         estimate D2E/DX2                !
 ! D67   D(2,17,18,20)         175.2336         estimate D2E/DX2                !
 ! D68   D(2,17,18,21)          -2.8305         estimate D2E/DX2                !
 ! D69   D(19,17,18,20)         -0.715          estimate D2E/DX2                !
 ! D70   D(19,17,18,21)       -178.779          estimate D2E/DX2                !
 ! D71   D(2,17,19,22)        -174.6901         estimate D2E/DX2                !
 ! D72   D(2,17,19,23)           3.4641         estimate D2E/DX2                !
 ! D73   D(18,17,19,22)          1.2354         estimate D2E/DX2                !
 ! D74   D(18,17,19,23)        179.3896         estimate D2E/DX2                !
 ! D75   D(17,18,20,24)         -0.0456         estimate D2E/DX2                !
 ! D76   D(17,18,20,25)       -178.4784         estimate D2E/DX2                !
 ! D77   D(21,18,20,24)        178.0405         estimate D2E/DX2                !
 ! D78   D(21,18,20,25)         -0.3923         estimate D2E/DX2                !
 ! D79   D(17,19,22,24)         -1.0064         estimate D2E/DX2                !
 ! D80   D(17,19,22,26)        176.8127         estimate D2E/DX2                !
 ! D81   D(23,19,22,24)       -179.1592         estimate D2E/DX2                !
 ! D82   D(23,19,22,26)         -1.3401         estimate D2E/DX2                !
 ! D83   D(18,20,24,22)          0.3017         estimate D2E/DX2                !
 ! D84   D(18,20,24,40)       -174.5212         estimate D2E/DX2                !
 ! D85   D(25,20,24,22)        178.7422         estimate D2E/DX2                !
 ! D86   D(25,20,24,40)          3.9194         estimate D2E/DX2                !
 ! D87   D(19,22,24,20)          0.2166         estimate D2E/DX2                !
 ! D88   D(19,22,24,40)        174.9295         estimate D2E/DX2                !
 ! D89   D(26,22,24,20)       -177.5954         estimate D2E/DX2                !
 ! D90   D(26,22,24,40)         -2.8825         estimate D2E/DX2                !
 ! D91   D(20,24,40,41)         26.0863         estimate D2E/DX2                !
 ! D92   D(20,24,40,42)        145.1466         estimate D2E/DX2                !
 ! D93   D(20,24,40,68)        -93.0883         estimate D2E/DX2                !
 ! D94   D(22,24,40,41)       -148.5766         estimate D2E/DX2                !
 ! D95   D(22,24,40,42)        -29.5163         estimate D2E/DX2                !
 ! D96   D(22,24,40,68)         92.2488         estimate D2E/DX2                !
 ! D97   D(11,27,28,30)        178.1689         estimate D2E/DX2                !
 ! D98   D(11,27,28,31)         -1.8731         estimate D2E/DX2                !
 ! D99   D(29,27,28,30)         -1.0339         estimate D2E/DX2                !
 ! D100  D(29,27,28,31)        178.9242         estimate D2E/DX2                !
 ! D101  D(11,27,29,32)       -178.1187         estimate D2E/DX2                !
 ! D102  D(11,27,29,33)          2.3662         estimate D2E/DX2                !
 ! D103  D(28,27,29,32)          1.0858         estimate D2E/DX2                !
 ! D104  D(28,27,29,33)       -178.4293         estimate D2E/DX2                !
 ! D105  D(27,28,30,34)         -0.3778         estimate D2E/DX2                !
 ! D106  D(27,28,30,35)        178.8582         estimate D2E/DX2                !
 ! D107  D(31,28,30,34)        179.6642         estimate D2E/DX2                !
 ! D108  D(31,28,30,35)         -1.0998         estimate D2E/DX2                !
 ! D109  D(27,29,32,34)          0.275          estimate D2E/DX2                !
 ! D110  D(27,29,32,36)        179.9234         estimate D2E/DX2                !
 ! D111  D(33,29,32,34)        179.7964         estimate D2E/DX2                !
 ! D112  D(33,29,32,36)         -0.5551         estimate D2E/DX2                !
 ! D113  D(28,30,34,32)          1.7338         estimate D2E/DX2                !
 ! D114  D(28,30,34,37)        179.0493         estimate D2E/DX2                !
 ! D115  D(35,30,34,32)       -177.5004         estimate D2E/DX2                !
 ! D116  D(35,30,34,37)         -0.1848         estimate D2E/DX2                !
 ! D117  D(29,32,34,30)         -1.6797         estimate D2E/DX2                !
 ! D118  D(29,32,34,37)       -179.0222         estimate D2E/DX2                !
 ! D119  D(36,32,34,30)        178.6718         estimate D2E/DX2                !
 ! D120  D(36,32,34,37)          1.3293         estimate D2E/DX2                !
 ! D121  D(30,34,37,38)       -146.3468         estimate D2E/DX2                !
 ! D122  D(30,34,37,39)        -25.3475         estimate D2E/DX2                !
 ! D123  D(30,34,37,67)         94.3899         estimate D2E/DX2                !
 ! D124  D(32,34,37,38)         30.9213         estimate D2E/DX2                !
 ! D125  D(32,34,37,39)        151.9206         estimate D2E/DX2                !
 ! D126  D(32,34,37,67)        -88.342          estimate D2E/DX2                !
 ! D127  D(34,37,77,41)         15.3451         estimate D2E/DX2                !
 ! D128  D(34,37,77,74)       -173.4501         estimate D2E/DX2                !
 ! D129  D(34,37,77,83)         83.8258         estimate D2E/DX2                !
 ! D130  D(34,37,77,94)        -53.9619         estimate D2E/DX2                !
 ! D131  D(39,37,77,41)       -110.1317         estimate D2E/DX2                !
 ! D132  D(39,37,77,74)         61.0732         estimate D2E/DX2                !
 ! D133  D(39,37,77,83)        -41.6509         estimate D2E/DX2                !
 ! D134  D(39,37,77,94)       -179.4386         estimate D2E/DX2                !
 ! D135  D(67,37,77,41)        140.6111         estimate D2E/DX2                !
 ! D136  D(67,37,77,74)        -48.184          estimate D2E/DX2                !
 ! D137  D(67,37,77,83)       -150.9081         estimate D2E/DX2                !
 ! D138  D(67,37,77,94)         71.3042         estimate D2E/DX2                !
 ! D139  D(34,37,67,43)        171.4599         estimate D2E/DX2                !
 ! D140  D(34,37,67,47)         52.507          estimate D2E/DX2                !
 ! D141  D(34,37,67,51)        -69.4447         estimate D2E/DX2                !
 ! D142  D(38,37,67,43)         48.3347         estimate D2E/DX2                !
 ! D143  D(38,37,67,47)        -70.6181         estimate D2E/DX2                !
 ! D144  D(38,37,67,51)        167.4302         estimate D2E/DX2                !
 ! D145  D(39,37,67,43)        -65.0594         estimate D2E/DX2                !
 ! D146  D(39,37,67,47)        175.9877         estimate D2E/DX2                !
 ! D147  D(39,37,67,51)         54.036          estimate D2E/DX2                !
 ! D148  D(24,40,41,77)        152.29           estimate D2E/DX2                !
 ! D149  D(42,40,41,77)         30.2064         estimate D2E/DX2                !
 ! D150  D(68,40,41,77)        -81.9037         estimate D2E/DX2                !
 ! D151  D(24,40,68,55)        169.712          estimate D2E/DX2                !
 ! D152  D(24,40,68,59)        -71.052          estimate D2E/DX2                !
 ! D153  D(24,40,68,63)         51.0638         estimate D2E/DX2                !
 ! D154  D(41,40,68,55)         47.2387         estimate D2E/DX2                !
 ! D155  D(41,40,68,59)        166.4747         estimate D2E/DX2                !
 ! D156  D(41,40,68,63)        -71.4095         estimate D2E/DX2                !
 ! D157  D(42,40,68,55)        -65.4449         estimate D2E/DX2                !
 ! D158  D(42,40,68,59)         53.7911         estimate D2E/DX2                !
 ! D159  D(42,40,68,63)        175.9069         estimate D2E/DX2                !
 ! D160  D(40,41,77,38)       -127.083          estimate D2E/DX2                !
 ! D161  D(40,41,77,74)         64.3617         estimate D2E/DX2                !
 ! D162  D(40,41,77,83)        152.629          estimate D2E/DX2                !
 ! D163  D(40,41,77,94)        -40.9318         estimate D2E/DX2                !
 ! D164  D(44,43,67,37)        169.7203         estimate D2E/DX2                !
 ! D165  D(44,43,67,47)        -69.6425         estimate D2E/DX2                !
 ! D166  D(44,43,67,51)         50.0104         estimate D2E/DX2                !
 ! D167  D(45,43,67,37)        -71.2377         estimate D2E/DX2                !
 ! D168  D(45,43,67,47)         49.3995         estimate D2E/DX2                !
 ! D169  D(45,43,67,51)        169.0524         estimate D2E/DX2                !
 ! D170  D(46,43,67,37)         48.1337         estimate D2E/DX2                !
 ! D171  D(46,43,67,47)        168.7709         estimate D2E/DX2                !
 ! D172  D(46,43,67,51)        -71.5762         estimate D2E/DX2                !
 ! D173  D(48,47,67,37)        -69.5004         estimate D2E/DX2                !
 ! D174  D(48,47,67,43)        172.1775         estimate D2E/DX2                !
 ! D175  D(48,47,67,51)         52.7761         estimate D2E/DX2                !
 ! D176  D(49,47,67,37)         51.0286         estimate D2E/DX2                !
 ! D177  D(49,47,67,43)        -67.2936         estimate D2E/DX2                !
 ! D178  D(49,47,67,51)        173.305          estimate D2E/DX2                !
 ! D179  D(50,47,67,37)        169.9076         estimate D2E/DX2                !
 ! D180  D(50,47,67,43)         51.5855         estimate D2E/DX2                !
 ! D181  D(50,47,67,51)        -67.8159         estimate D2E/DX2                !
 ! D182  D(52,51,67,37)        -61.7906         estimate D2E/DX2                !
 ! D183  D(52,51,67,43)         56.2807         estimate D2E/DX2                !
 ! D184  D(52,51,67,47)        175.3001         estimate D2E/DX2                !
 ! D185  D(53,51,67,37)         58.4813         estimate D2E/DX2                !
 ! D186  D(53,51,67,43)        176.5526         estimate D2E/DX2                !
 ! D187  D(53,51,67,47)        -64.428          estimate D2E/DX2                !
 ! D188  D(54,51,67,37)        178.4997         estimate D2E/DX2                !
 ! D189  D(54,51,67,43)        -63.429          estimate D2E/DX2                !
 ! D190  D(54,51,67,47)         55.5904         estimate D2E/DX2                !
 ! D191  D(56,55,68,40)        173.1187         estimate D2E/DX2                !
 ! D192  D(56,55,68,59)         53.3028         estimate D2E/DX2                !
 ! D193  D(56,55,68,63)        -66.7818         estimate D2E/DX2                !
 ! D194  D(57,55,68,40)        -66.3896         estimate D2E/DX2                !
 ! D195  D(57,55,68,59)        173.7946         estimate D2E/DX2                !
 ! D196  D(57,55,68,63)         53.7099         estimate D2E/DX2                !
 ! D197  D(58,55,68,40)         52.4873         estimate D2E/DX2                !
 ! D198  D(58,55,68,59)        -67.3286         estimate D2E/DX2                !
 ! D199  D(58,55,68,63)        172.5868         estimate D2E/DX2                !
 ! D200  D(60,59,68,40)        -60.6223         estimate D2E/DX2                !
 ! D201  D(60,59,68,55)         56.9931         estimate D2E/DX2                !
 ! D202  D(60,59,68,63)        176.4993         estimate D2E/DX2                !
 ! D203  D(61,59,68,40)         59.6737         estimate D2E/DX2                !
 ! D204  D(61,59,68,55)        177.2892         estimate D2E/DX2                !
 ! D205  D(61,59,68,63)        -63.2046         estimate D2E/DX2                !
 ! D206  D(62,59,68,40)        179.7884         estimate D2E/DX2                !
 ! D207  D(62,59,68,55)        -62.5961         estimate D2E/DX2                !
 ! D208  D(62,59,68,63)         56.9101         estimate D2E/DX2                !
 ! D209  D(64,63,68,40)        -68.0682         estimate D2E/DX2                !
 ! D210  D(64,63,68,55)        174.4317         estimate D2E/DX2                !
 ! D211  D(64,63,68,59)         54.4618         estimate D2E/DX2                !
 ! D212  D(65,63,68,40)         51.869          estimate D2E/DX2                !
 ! D213  D(65,63,68,55)        -65.6311         estimate D2E/DX2                !
 ! D214  D(65,63,68,59)        174.399          estimate D2E/DX2                !
 ! D215  D(66,63,68,40)        171.9945         estimate D2E/DX2                !
 ! D216  D(66,63,68,55)         54.4943         estimate D2E/DX2                !
 ! D217  D(66,63,68,59)        -65.4756         estimate D2E/DX2                !
 ! D218  D(76,74,75,79)        -80.1921         estimate D2E/DX2                !
 ! D219  D(76,74,75,86)        156.6916         estimate D2E/DX2                !
 ! D220  D(77,74,75,79)        100.0166         estimate D2E/DX2                !
 ! D221  D(77,74,75,86)        -23.0997         estimate D2E/DX2                !
 ! D222  D(75,74,76,89)         44.5558         estimate D2E/DX2                !
 ! D223  D(75,74,76,91)       -118.854          estimate D2E/DX2                !
 ! D224  D(77,74,76,89)       -135.6503         estimate D2E/DX2                !
 ! D225  D(77,74,76,91)         60.9398         estimate D2E/DX2                !
 ! D226  D(75,74,77,38)         94.9196         estimate D2E/DX2                !
 ! D227  D(75,74,77,41)        -98.8506         estimate D2E/DX2                !
 ! D228  D(75,74,77,83)       -174.0745         estimate D2E/DX2                !
 ! D229  D(75,74,77,94)        -11.5315         estimate D2E/DX2                !
 ! D230  D(76,74,77,38)        -84.8802         estimate D2E/DX2                !
 ! D231  D(76,74,77,41)         81.3496         estimate D2E/DX2                !
 ! D232  D(76,74,77,83)          6.1257         estimate D2E/DX2                !
 ! D233  D(76,74,77,94)        168.6687         estimate D2E/DX2                !
 ! D234  D(74,75,79,78)         21.1087         estimate D2E/DX2                !
 ! D235  D(86,75,79,78)        156.3489         estimate D2E/DX2                !
 ! D236  D(74,75,84,85)        172.878          estimate D2E/DX2                !
 ! D237  D(79,75,84,85)         51.5159         estimate D2E/DX2                !
 ! D238  D(74,76,87,80)         15.6103         estimate D2E/DX2                !
 ! D239  D(74,76,87,88)        -90.0992         estimate D2E/DX2                !
 ! D240  D(91,76,87,80)        176.0203         estimate D2E/DX2                !
 ! D241  D(91,76,87,88)         70.3108         estimate D2E/DX2                !
 ! D242  D(74,76,90,92)        -88.546          estimate D2E/DX2                !
 ! D243  D(89,76,90,92)        108.5246         estimate D2E/DX2                !
 ! D244  D(38,77,81,82)        129.2304         estimate D2E/DX2                !
 ! D245  D(41,77,81,82)       -132.2807         estimate D2E/DX2                !
 ! D246  D(74,77,81,82)          5.4129         estimate D2E/DX2                !
 ! D247  D(94,77,81,82)       -148.3133         estimate D2E/DX2                !
 ! D248  D(38,77,93,95)       -103.9031         estimate D2E/DX2                !
 ! D249  D(41,77,93,95)        157.9277         estimate D2E/DX2                !
 ! D250  D(74,77,93,95)         22.8702         estimate D2E/DX2                !
 ! D251  D(83,77,93,95)        179.9659         estimate D2E/DX2                !
 ! D252  D(80,78,79,75)         43.2941         estimate D2E/DX2                !
 ! D253  D(79,78,80,87)        -18.5582         estimate D2E/DX2                !
 ! D254  D(78,80,87,88)         92.7547         estimate D2E/DX2                !
 ! D255  D(78,80,87,89)        -12.9399         estimate D2E/DX2                !
 --------------------------------------------------------------------------------
 Trust Radius=3.00D-01 FncErr=1.00D-07 GrdErr=1.00D-06 EigMax=2.50D+02 EigMin=1.00D-04
 Number of steps in this run=    543 maximum allowed number of steps=    570.
 GradGradGradGradGradGradGradGradGradGradGradGradGradGradGradGradGradGrad

 Leave Link  103 at Sat Apr 20 11:22:22 2024, MaxMem=  1879048192 cpu:               0.7 elap:               0.1
 (Enter /packages/apps/gaussian/g16/g16/l202.exe)
 Stoichiometry    C28H56N2O9
 Framework group  C1[X(C28H56N2O9)]
 Deg. of freedom   279
 Full point group                 C1      NOp   1
 Largest Abelian subgroup         C1      NOp   1
 Largest concise Abelian subgroup C1      NOp   1
                         Standard orientation:                         
 ---------------------------------------------------------------------
 Center     Atomic      Atomic             Coordinates (Angstroms)
 Number     Number       Type             X           Y           Z
 ---------------------------------------------------------------------
      1          6           0        5.005364   -3.308804    2.058879
      2          6           0        4.754828   -2.539576    0.760873
      3          1           0        4.614579   -4.324498    1.997848
      4          1           0        6.074642   -3.365299    2.265776
      5          1           0        4.531594   -2.817944    2.910331
      6          6           0        5.259939   -1.089969    0.865912
      7          1           0        5.316212   -3.035097   -0.036487
      8          6           0        5.340940   -0.370154   -0.483674
      9          1           0        6.328581   -0.530693   -0.922163
     10          1           0        4.627179   -0.810181   -1.183333
     11          6           0        5.068332    1.137217   -0.402792
     12          6           0        5.451133    1.835437   -1.716454
     13          6           0        5.268293    3.348060   -1.686585
     14          1           0        5.599217    3.800618   -2.621219
     15          1           0        4.222412    3.616971   -1.534773
     16          1           0        5.846603    3.795026   -0.875340
     17          6           0        3.293404   -2.540877    0.360586
     18          6           0        2.313275   -2.094748    1.245759
     19          6           0        2.898026   -2.902888   -0.922339
     20          6           0        0.989253   -1.998576    0.861412
     21          1           0        2.588927   -1.786211    2.245707
     22          6           0        1.571612   -2.798530   -1.318207
     23          1           0        3.641611   -3.243388   -1.632433
     24          6           0        0.601435   -2.347707   -0.431405
     25          1           0        0.248178   -1.625788    1.558701
     26          1           0        1.299063   -3.038026   -2.339112
     27          6           0        3.625998    1.419968   -0.028806
     28          6           0        3.308283    2.143504    1.114560
     29          6           0        2.576524    0.975431   -0.832491
     30          6           0        1.988772    2.432969    1.434199
     31          1           0        4.102966    2.485756    1.765922
     32          6           0        1.259316    1.260816   -0.520983
     33          1           0        2.784355    0.387246   -1.717182
     34          6           0        0.948936    2.012299    0.612840
     35          1           0        1.768074    2.982820    2.341523
     36          1           0        0.463097    0.902948   -1.165323
     37          6           0       -0.481202    2.301297    0.959569
     38          1           0       -1.146627    1.499986    0.637006
     39          1           0       -0.620627    2.436849    2.029707
     40          6           0       -0.814049   -2.120123   -0.865546
     41          1           0       -1.266336   -1.312456   -0.298767
     42          1           0       -0.876214   -1.840691   -1.915182
     43          6           0       -2.527023    3.582313    0.599095
     44          1           0       -2.912509    4.557636    0.312510
     45          1           0       -3.003716    2.810655    0.002547
     46          1           0       -2.685509    3.379363    1.656032
     47          6           0       -0.846435    3.566346   -1.154183
     48          1           0        0.211703    3.692224   -1.363257
     49          1           0       -1.202827    2.625372   -1.564301
     50          1           0       -1.422970    4.384995   -1.576045
     51          6           0       -0.428172    4.768200    0.917131
     52          1           0       -0.659841    4.793530    1.979028
     53          1           0        0.647108    4.721735    0.768279
     54          1           0       -0.832741    5.651183    0.428617
     55          6           0       -3.151544   -2.776683   -0.937956
     56          1           0       -3.847046   -3.610307   -0.940429
     57          1           0       -3.404705   -2.073723   -0.152655
     58          1           0       -3.175358   -2.264544   -1.893938
     59          6           0       -1.450130   -4.367071   -1.660912
     60          1           0       -1.566215   -3.971409   -2.666624
     61          1           0       -0.428384   -4.702836   -1.504859
     62          1           0       -2.140904   -5.192481   -1.507854
     63          6           0       -1.694137   -3.834681    0.698318
     64          1           0       -0.723660   -4.298567    0.850138
     65          1           0       -1.828874   -3.008840    1.396916
     66          1           0       -2.486289   -4.570556    0.813660
     67          7           0       -1.054124    3.563008    0.322019
     68          7           0       -1.763547   -3.294231   -0.687872
     69          1           0        6.243412   -1.086610    1.341689
     70          1           0        4.592685   -0.545858    1.539531
     71          1           0        4.861365    1.408537   -2.532507
     72          1           0        6.494718    1.598033   -1.936595
     73          1           0        5.700504    1.554993    0.387927
     74          6           0       -3.806875    0.486356    0.257469
     75          8           0       -4.471356    0.970260   -0.712387
     76          8           0       -4.344086    0.211780    1.382543
     77          8           0       -2.526546    0.260908    0.111901
     78          8           0       -5.694908   -1.493837   -1.510178
     79          1           0       -5.330334   -0.597422   -1.446609
     80          1           0       -6.158896   -1.573835   -0.663144
     81          8           0       -1.888048   -1.044941    2.356295
     82          1           0       -2.771156   -1.130886    2.725414
     83          1           0       -2.087347   -0.517426    1.539275
     84          8           0       -3.510194    2.384079   -2.698444
     85          1           0       -4.232883    2.499967   -3.313071
     86          1           0       -3.884403    1.831700   -1.955380
     87          8           0       -6.632915   -1.170803    1.175416
     88          1           0       -7.365277   -0.558696    1.119823
     89          1           0       -5.837219   -0.597644    1.287801
     90          8           0       -2.862307    1.692843    3.224834
     91          1           0       -3.506251    1.252353    2.633689
     92          1           0       -2.212939    0.997482    3.355665
     93          8           0       -1.491087    0.443306   -2.379086
     94          1           0       -1.943930    0.365925   -1.507599
     95          1           0       -2.096091    1.008850   -2.876672
 ---------------------------------------------------------------------
 Rotational constants (GHZ):           0.1145009           0.0648831           0.0505494
 Leave Link  202 at Sat Apr 20 11:22:23 2024, MaxMem=  1879048192 cpu:               0.9 elap:               0.1
 (Enter /packages/apps/gaussian/g16/g16/l301.exe)
 Standard basis: 6-311+G(2d,2p) (5D, 7F)
 Ernie: Thresh=  0.10000D-02 Tol=  0.10000D-05 Strict=F.
 There are  1635 symmetry adapted cartesian basis functions of A   symmetry.
 There are  1557 symmetry adapted basis functions of A   symmetry.
  1557 basis functions,  2254 primitive gaussians,  1635 cartesian basis functions
   155 alpha electrons      155 beta electrons
       nuclear repulsion energy      5341.0528387697 Hartrees.
 IExCor= 4639 DFT=T Ex+Corr=wB97XD ExCW=0 ScaHFX=  1.000000
 ScaDFX=  1.000000  1.000000  1.000000  1.000000 ScalE2=  1.000000  1.000000
 IRadAn=      5 IRanWt=     -1 IRanGd=            0 ICorTp=0 IEmpDi=121
 HFx  wShort=  0.000000 wLong=  0.200000 cFull=  0.222036 cShort=  0.000000 cLong=  0.777964
 DFx  wShort=  0.000000 wLong=  0.200000 cFull=  0.000000 cShort=  0.000000 cLong=  1.000000
 NAtoms=   95 NActive=   95 NUniq=   95 SFac= 1.00D+00 NAtFMM=   60 NAOKFM=T Big=T
 Integral buffers will be    131072 words long.
 Raffenetti 2 integral format.
 Two-electron integral symmetry is turned on.
 R6Disp:  Grimme-D2 Dispersion energy=       -0.1112779557 Hartrees.
 Nuclear repulsion after empirical dispersion term =     5340.9415608140 Hartrees.
 Leave Link  301 at Sat Apr 20 11:22:23 2024, MaxMem=  1879048192 cpu:               1.0 elap:               0.1
 (Enter /packages/apps/gaussian/g16/g16/l302.exe)
 NPDir=0 NMtPBC=     1 NCelOv=     1 NCel=       1 NClECP=     1 NCelD=      1
         NCelK=      1 NCelE2=     1 NClLst=     1 CellRange=     0.0.
 One-electron integrals computed using PRISM.
 One-electron integral symmetry used in STVInt
 NBasis=  1557 RedAO= T EigKep=  1.08D-06  NBF=  1557
 NBsUse=  1548 1.00D-06 EigRej=  7.65D-07 NBFU=  1548
 Precomputing XC quadrature grid using
 IXCGrd= 4 IRadAn=           5 IRanWt=          -1 IRanGd=           0 AccXCQ= 0.00D+00.
 Generated NRdTot=       0 NPtTot=           0 NUsed=           0 NTot=          32
 NSgBfM=  1532  1526  1528  1532  1532 MxSgAt=    95 MxSgA2=    95.
 Leave Link  302 at Sat Apr 20 11:22:26 2024, MaxMem=  1879048192 cpu:              63.9 elap:               3.3
 (Enter /packages/apps/gaussian/g16/g16/l303.exe)
 DipDrv:  MaxL=1.
 Leave Link  303 at Sat Apr 20 11:22:27 2024, MaxMem=  1879048192 cpu:               5.8 elap:               0.4
 (Enter /packages/apps/gaussian/g16/g16/l401.exe)
 ExpMin= 4.38D-02 ExpMax= 8.59D+03 ExpMxC= 1.30D+03 IAcc=3 IRadAn=         5 AccDes= 0.00D+00
 Harris functional with IExCor= 4639 and IRadAn=       5 diagonalized for initial guess.
 HarFok:  IExCor= 4639 AccDes= 0.00D+00 IRadAn=         5 IDoV= 1 UseB2=F ITyADJ=14
 ICtDFT=  3500011 ScaDFX=  1.000000  1.000000  1.000000  1.000000
 FoFCou: FMM=F IPFlag=           0 FMFlag=      100000 FMFlg1=        2001
         NFxFlg=           0 DoJE=T BraDBF=F KetDBF=T FulRan=T
         wScrn=  0.000000 ICntrl=       500 IOpCl=  0 I1Cent=   200000004 NGrid=           0
         NMat0=    1 NMatS0=      1 NMatT0=    0 NMatD0=    1 NMtDS0=    0 NMtDT0=    0
 Petite list used in FoFCou.
 Harris En= -1805.91252496725    
 JPrj=0 DoOrth=F DoCkMO=F.
 Leave Link  401 at Sat Apr 20 11:22:38 2024, MaxMem=  1879048192 cpu:             207.7 elap:              10.6
 (Enter /packages/apps/gaussian/g16/g16/l502.exe)
 Integral symmetry usage will be decided dynamically.
 Closed shell SCF:
 Using DIIS extrapolation, IDIIS=  1040.
 NGot=  1879048192 LenX=  1873653815 LenY=  1870978955
 Requested convergence on RMS density matrix=1.00D-08 within 128 cycles.
 Requested convergence on MAX density matrix=1.00D-06.
 Requested convergence on             energy=1.00D-06.
 No special actions if energy rises.
 Fock matrices will be formed incrementally for  20 cycles.

 Cycle   1  Pass 1  IDiag  1:
 FoFJK:  IHMeth= 1 ICntrl=       0 DoSepK=T KAlg= 0 I1Cent=           0 FoldK=F
 IRaf=         1 NMat=       1 IRICut=       1 DoRegI=T DoRafI=F ISym2E= 0 IDoP0=0 IntGTp=1.
 FoFCou: FMM=T IPFlag=           0 FMFlag=      100000 FMFlg1=        2001
         NFxFlg=           0 DoJE=T BraDBF=F KetDBF=F FulRan=T
         wScrn=  0.000000 ICntrl=       500 IOpCl=  0 I1Cent=           0 NGrid=           0
         NMat0=    1 NMatS0=      1 NMatT0=    0 NMatD0=    1 NMtDS0=    0 NMtDT0=    0
 Symmetry not used in FoFCou.
 FMM levels:  10  Number of levels for PrismC:   9
 E= -1886.77988408594    
 DIIS: error= 3.92D-02 at cycle   1 NSaved=   1.
 NSaved= 1 IEnMin= 1 EnMin= -1886.77988408594     IErMin= 1 ErrMin= 3.92D-02
 ErrMax= 3.92D-02  0.00D+00 EMaxC= 1.00D-01 BMatC= 3.96D+00 BMatP= 3.96D+00
 IDIUse=3 WtCom= 6.08D-01 WtEn= 3.92D-01
 Coeff-Com:  0.100D+01
 Coeff-En:   0.100D+01
 Coeff:      0.100D+01
 Gap=     0.372 Goal=   None    Shift=    0.000
 GapD=    0.372 DampG=1.000 DampE=0.500 DampFc=0.5000 IDamp=-1.
 Damping current iteration by 5.00D-01
 RMSDP=4.37D-03 MaxDP=8.44D-01              OVMax= 1.24D-01

 Cycle   2  Pass 1  IDiag  1:
 RMSU=  1.21D-03    CP:  8.60D-01
 E= -1887.05971807486     Delta-E=       -0.279833988918 Rises=F Damp=T
 DIIS: error= 1.88D-02 at cycle   2 NSaved=   2.
 NSaved= 2 IEnMin= 2 EnMin= -1887.05971807486     IErMin= 2 ErrMin= 1.88D-02
 ErrMax= 1.88D-02  0.00D+00 EMaxC= 1.00D-01 BMatC= 8.24D-01 BMatP= 3.96D+00
 IDIUse=3 WtCom= 8.12D-01 WtEn= 1.88D-01
 Coeff-Com: -0.599D+00 0.160D+01
 Coeff-En:   0.000D+00 0.100D+01
 Coeff:     -0.486D+00 0.149D+01
 Gap=     0.428 Goal=   None    Shift=    0.000
 RMSDP=2.65D-03 MaxDP=5.26D-01 DE=-2.80D-01 OVMax= 9.86D-02

 Cycle   3  Pass 1  IDiag  1:
 RMSU=  1.08D-03    CP:  6.85D-01  1.71D+00
[...]
 0.00002825,0.00020564,0.00006671,0.00005596,0.00003799,0.00000848,-0.0
 0004654,0.00013960,-0.00006050,-0.00024338,0.00005997,0.00002227,0.000
 00460,-0.00029430,0.00047520,0.00008280,-0.00003338,0.00005786,0.00005
 794,-0.00005583,0.00004597,-0.00002273,-0.00002807,-0.00000295,0.00001
 737,-0.00008399,-0.00004043,-0.00002009,-0.00011694,0.00005044,0.00019
 928,0.00003852,-0.00004500,-0.00002504,-0.00002491,0.00001477,0.000005
 01,-0.00007686,-0.00023728,-0.00016301,-0.00000663,0.00001768,-0.00004
 847,0.00004593,-0.00002643,0.00004957,0.00000469,0.00002434,-0.0000098
 1,0.00082189,0.00034056,-0.00010343,0.00058222,-0.00004441,-0.00002026
 ,-0.00008294,0.00023049,-0.00085031,-0.00016834,0.00013904,0.00007845,
 -0.00056661,-0.00131464,0.00018688,-0.00112156,-0.00177203,0.00264109,
 -0.00100497,-0.00105473,-0.00109846,-0.00000054,-0.00021904,-0.0000339
 8,-0.00002159,0.00002776,0.00002603,-0.00031877,-0.00012865,-0.0003427
 2,-0.00005787,0.00016489,0.00000400,-0.00000142,-0.00031094,-0.0007514
 4,-0.00012013,0.00031484,0.00017858,0.00111329,-0.00247120,0.00060524,
 -0.00006848,0.00024469,0.00015298,0.00011034,-0.00017512,0.00008836,-0
 .00002075,0.00004495,0.00005610,0.00000513,0.00002055,-0.00002026,-0.0
 0001376,-0.00002650,-0.00002163,-0.00009620,-0.00016057,0.00041200,0.0
 0008099,0.00029348,-0.00017818,0.00021017,-0.00008053,0.00032830,0.000
 28696,-0.00049113,-0.00049583,-0.00016499,-0.00007266,-0.00025822,-0.0
 0001175,-0.00002466,-0.00005751,0.00002556,0.00003135,0.00001285,-0.00
 000455,0.00007272,0.00004335,-0.00005259,-0.00002930,0.00029528,0.0000
 2727,0.00003527,-0.00005054,0.00001528,0.00006734,0.00010400,-0.000007
 84,0.00003390,-0.00005634,-0.00006536,-0.00012209,-0.00002779,0.000262
 78,0.00028781,-0.00010178,0.00002544,-0.00003551,0.00000189,-0.0000057
 1,0.00002255,-0.00000960,0.00001163,0.00000761,0.00000557,-0.00002582,
 0.00000305,-0.00001392,-0.00002096,-0.00000727,0.00000092,0.00331356,0
 .00082728,-0.00240426,-0.00006696,-0.00194548,0.00145366,-0.00094020,0
 .00070998,0.00009886,-0.00223807,-0.01018818,-0.00016508,-0.00042005,-
 0.00026241,-0.00003481,0.00020862,0.00035945,0.00006278,0.00007683,0.0
 0005475,0.00009505,-0.00010425,-0.00042071,-0.00001999,0.00000307,0.00
 007665,0.00004299,0.00021966,0.00022348,-0.00011779,0.00066556,-0.0001
 7288,-0.00085461,0.00021254,0.00031103,0.00007312,-0.00228899,-0.00009
 824,-0.00028201,-0.00016977,-0.00002645,-0.00006243,0.00000232,0.00002
 389,-0.00000045,0.00016407,0.00000700,-0.00000761,0.00012898,-0.000288
 62,0.00001534,-0.00008991,0.00020429,0.00018038,-0.00002458,0.00011915
 ,0.00001780,-0.01049265,-0.03253916,0.01970204,0.00154732,0.05140204,0
 .00000180,0.00001053,0.00001300,0.00000436,-0.00001947,-0.00002182,0.0
 0000243,0.00001080,0.00000033,-0.00000429,-0.00000083,-0.00000216,0.00
 000119,-0.00001100,-0.00001167,0.00001517,-0.00000186,0.00001314,-0.00
 001670,-0.00000509,-0.00000848,-0.00004025,0.00001702,0.00001991,-0.00
 000750,-0.00000500,-0.00000470,0.00001171,-0.00002268,-0.00000108,0.00
 002227,-0.00003300,-0.00004240,-0.00004951,0.00001596,0.00006420,-0.00
 001217,-0.00000169,-0.00002391,-0.00002131,0.00001469,-0.00000648,0.00
 000560,0.00000746,0.00003496,0.00002310,-0.00000540,-0.00001724,-0.000
 01429,-0.00000793,-0.00002759,0.00000432,-0.00008639,-0.00015926,-0.00
 015722,0.00002212,-0.00010833,0.00021334,0.00011205,0.00024162,0.00004
 725,-0.00000565,-0.00000206,-0.00013003,0.00009959,0.00015900,-0.00003
 296,-0.00002274,0.00000394,-0.00016250,-0.00004622,-0.00060324,0.00026
 591,0.00009348,0.00000352,-0.00001632,-0.00015821,-0.00006713,-0.00009
 892,0.00003277,0.00014577,-0.00006532,-0.00013310,-0.00012894,0.000142
 70,-0.00002432,-0.00020337,-0.00013727,-0.00019256,-0.00026788,-0.0000
 2715,-0.00001653,-0.00001671,-0.00024474,0.00023325,-0.00036070,-0.000
 17780,-0.00007302,0.00001306,0.00065537,0.00048741,0.00008700,0.000076
 57,-0.00005630,-0.00008595,-0.00073047,0.00007560,0.00171565,-0.000183
 31,-0.00002369,0.00053303,0.00242838,-0.00241202,-0.00143639,-0.000026
 33,0.00013354,-0.00003099,0.00041786,0.00025761,0.00109802,0.00203814,
 0.00356615,0.00002474,-0.00056384,-0.00167339,-0.00002643,0.00056518,0
 .00000060,-0.00022735,-0.00016425,0.00031598,0.00007859,-0.00004330,-0
 .00087348,0.00040086,0.00000913,-0.00030436,-0.00001169,0.00004029,-0.
 00029321,0.00047793,-0.00005304,0.00005096,-0.00007018,-0.00006941,0.0
 0156394,0.00164690,-0.00000811,-0.00006651,-0.00009851,-0.00003213,0.0
 0009645,-0.00041020,0.00006051,-0.00010849,-0.00012510,-0.00006647,0.0
 0003666,0.00004922,0.00000980,0.00013135,0.00005221,0.00024169,-0.0000
 0713,0.00084704,-0.00005237,-0.00007923,-0.00029321,-0.00018774,0.0008
 1598,-0.00000760,0.00024565,-0.00050910,0.00004591,-0.00000534,-0.0000
 7688,0.00030171,0.00002982,-0.00008931,-0.00005653,-0.00001811,-0.0000
 3998,-0.00003201,-0.00001239,-0.00000299,-0.00006311,-0.00008303,0.000
 08788,0.00019572,-0.00001836,-0.00005124,-0.00006953,0.00010765,0.0004
 5555,0.00018207,0.00000990,0.00002610,-0.00008661,-0.00026035,-0.00031
 686,-0.00021815,-0.00016532,0.00000574,-0.00101060,0.00000257,0.000005
 37,-0.00000864,-0.00000629,-0.00000738,-0.00000696,0.00000357,-0.00002
 701,-0.00002696,0.00000857,0.00000487,-0.00001670,0.00002350,-0.000000
 44,-0.00001890,-0.02800771,-0.00704207,0.00574186,0.00647285,0.0042189
 1,-0.00891875,0.00994168,-0.00025282,0.00496548,0.01514135,0.00240221,
 0.00689879,0.00009532,-0.00064905,-0.00106239,-0.00026899,0.00091193,0
 .00106062,-0.00008663,0.00018442,0.00045474,-0.00144510,-0.00289698,0.
 00366104,0.00002448,0.00030313,-0.00036812,0.00234529,0.00388388,-0.00
 568201,-0.00375327,-0.00191618,-0.00227090,-0.00011861,-0.00019491,-0.
 00018175,0.00278503,-0.00132403,0.00513312,0.00145926,-0.00099085,-0.0
 0039146,-0.00015126,0.00001615,0.00002353,-0.00216719,0.00129046,0.000
 22128,-0.00045748,0.00084207,0.00104780,0.00042142,-0.00086078,-0.0013
 2573,0.00014698,-0.00017010,-0.00044036,-0.13486274,0.04168655,-0.3233
 1585,0.13837424,-0.04601361,0.33677240,0.00001094,-0.00000427,0.000005
 95,-0.00001918,-0.00001767,-0.00000427,-0.00000564,0.00000420,0.000001
 44,0.00001269,0.00000101,-0.00000694,-0.00000449,-0.00000237,0.0000011
 1,0.00000702,0.00000743,0.00000031,0.00000409,0.00000293,0.00000234,-0
 .00000996,-0.00000143,0.00000619,0.00001290,0.00000515,0.00000199,-0.0
 0000074,-0.00000683,-0.00001011,-0.00001909,-0.00000582,0.00000598,-0.
 00001133,0.00001719,0.00001465,-0.00001567,-0.00000336,-0.00000772,-0.
 00000308,0.00000169,0.00000864,0.00000561,0.00001409,0.00001085,0.0000
 1121,-0.00000117,-0.00001327,-0.00001067,0.00001351,0.00001099,0.00001
 203,-0.00000957,-0.00001542,0.00000774,0.00000392,-0.00003132,0.000076
 31,0.00002601,0.00001043,0.00001304,-0.00000885,-0.00000697,0.00000576
 ,0.00001733,-0.00001018,0.00001015,-0.00000729,0.00000598,-0.00010719,
 0.00016492,-0.00010750,0.00001911,-0.00000030,0.00002342,-0.00001014,-
 0.00003522,-0.00000789,-0.00006366,-0.00001592,-0.00000439,0.00002338,
 -0.00001451,-0.00002083,0.00001115,0.00003895,-0.00001663,0.00000629,-
 0.00000378,0.00001672,0.00000891,-0.00000351,-0.00000916,-0.00013112,0
 .00020011,0.00006808,-0.00004355,-0.00003600,0.00000066,-0.00004301,0.
 00004581,0.00006374,-0.00000127,-0.00001090,-0.00001104,-0.00011354,-0
 .00033377,0.00013366,-0.00011053,0.00007391,0.00002505,0.00010856,-0.0
 0001064,0.00012900,0.00005658,-0.00003154,-0.00003916,0.00028522,0.000
 13792,-0.00015154,0.00003022,-0.00006526,0.00039027,-0.00026535,-0.000
 39876,-0.00008971,0.00041535,-0.00004344,0.00005238,0.00002102,-0.0000
 9731,-0.00008382,0.00025209,0.00004180,-0.00031201,-0.00012092,0.00002
 510,0.00002225,-0.00023518,0.00020563,0.00005484,-0.00009630,-0.000000
 07,0.00007253,0.00031728,0.00203453,0.00163544,0.00018986,-0.00041224,
 -0.00016571,-0.00015247,0.00009035,-0.00021286,0.00005112,-0.00005575,
 -0.00006895,-0.00003842,0.00002817,0.00002429,0.00002141,0.00000189,0.
 00002412,0.00016389,0.00008853,0.00000105,0.00000043,0.00005445,-0.000
 02860,0.00008097,0.00000948,0.00001258,0.00018562,0.00002166,-0.000068
 55,-0.00007443,-0.00001600,-0.00001227,0.00004044,-0.00002859,-0.00001
 479,-0.00000176,-0.00002401,0.00000360,-0.00000389,0.00003940,-0.00000
 844,-0.00008033,0.00001283,0.00006716,-0.00000062,-0.00001679,0.000003
 51,0.00002695,0.00001279,0.00002149,-0.00000977,0.00003682,-0.00002809
 ,-0.00005080,-0.00041855,-0.00008552,-0.00003339,0.00011860,-0.0000861
 1,0.00001667,-0.00000334,-0.00000546,-0.00000549,-0.00000121,0.0000082
 2,-0.00000470,-0.00001576,-0.00001324,0.00001812,0.00000098,0.00000048
 ,0.00001097,-0.00000307,-0.00001244,0.00516534,0.00205709,-0.00334800,
 -0.00114385,-0.00224122,0.00434392,-0.00110042,-0.00043785,0.00102318,
 -0.00446147,-0.00097365,-0.00264374,0.00002102,-0.00040206,0.00033438,
 -0.00016202,0.00036507,-0.00031310,-0.00003081,0.00003908,-0.00014581,
 -0.00015144,-0.00002519,-0.00012693,0.00007882,0.00004098,-0.00002357,
 0.00004136,-0.00005180,0.00014579,0.00119880,0.00456958,0.00243594,-0.
 00081405,0.00000450,0.00115127,-0.00403865,-0.00033306,-0.00608726,-0.
 00000298,-0.00003904,0.00019878,-0.00003397,0.00002324,-0.00006582,0.0
 0003306,0.00002184,-0.00010731,-0.00021912,0.00004707,0.00007089,0.000
 17456,-0.00008329,-0.00014533,0.00005833,0.00000906,0.00003316,-0.2169
 9623,-0.18715588,0.15885742,0.01321948,0.01067009,-0.00945801,0.208510
 82,0.00002336,-0.00000914,0.00000630,-0.00003370,-0.00001567,-0.000002
 37,-0.00000657,-0.00000489,0.00000492,0.00001663,0.00000390,-0.0000098
 2,-0.00000763,0.00000008,0.00000228,0.00001248,0.00001254,-0.00000961,
 0.00000670,0.00000282,0.00000171,-0.00001463,0.00000568,0.00001578,0.0
 0001321,-0.00000009,0.00000071,-0.00000414,-0.00000250,-0.00001671,-0.
 00000129,-0.00001548,-0.00004302,-0.00001823,0.00002207,0.00000088,0.0
 0001936,-0.00000045,0.00001026,0.00001141,-0.00000777,0.00001322,-0.00
 001139,0.00001208,-0.00001620,-0.00000326,-0.00000463,-0.00000469,-0.0
 0002541,0.00001063,0.00001094,0.00003072,0.00000470,0.00000906,0.00000
 843,-0.00001404,-0.00004685,0.00000559,0.00002999,0.00003766,0.0000079
 8,-0.00000373,-0.00001391,-0.00002315,0.00002238,-0.00001053,0.0000094
 0,0.00000392,0.00000787,0.00000430,-0.00001681,0.00003420,0.00000348,0
 .00000810,0.00002252,-0.00001636,-0.00003403,-0.00002348,0.00003153,0.
 00005601,0.00007814,0.00001706,-0.00005331,-0.00006970,0.00017739,-0.0
 0019734,-0.00024741,-0.00000563,-0.00011054,-0.00011636,0.00000268,0.0
 0000110,-0.00001554,0.00030691,-0.00009544,-0.00002345,-0.00005023,0.0
 0002291,0.00001128,0.00029096,-0.00006500,0.00006047,0.00003787,-0.000
 01240,-0.00007245,-0.00117822,0.00047932,0.00059398,0.00032491,0.00058
 238,-0.00017021,-0.00010122,0.00021066,0.00017422,-0.00004975,-0.00012
 224,0.00002117,-0.00027922,-0.00060622,0.00003042,0.00003705,-0.000111
 67,0.00000754,-0.00011500,-0.00024759,0.00050608,0.00006890,-0.0001477
 8,0.00014288,-0.00000482,-0.00012237,-0.00008535,0.00000810,0.00023135
 ,-0.00034955,-0.00006442,0.00012778,0.00001705,-0.00001260,-0.00068091
 ,-0.00035240,-0.00011746,0.00023501,0.00015126,0.00164971,-0.00059314,
 -0.00211420,0.00011739,-0.00033671,-0.00011252,0.00008409,-0.00017460,
 0.00017750,-0.00001119,0.00007040,0.00005900,0.00000335,0.00005266,-0.
 00003610,-0.00001174,-0.00007168,-0.00002371,-0.00014643,-0.00007314,0
 .00027978,0.00004839,0.00009838,-0.00008820,0.00006580,0.00002939,0.00
 002482,0.00008107,-0.00032960,0.00005019,-0.00001428,-0.00003302,0.000
 05977,-0.00001851,-0.00004767,-0.00001746,0.00001038,0.00001017,-0.000
 01545,-0.00000646,0.00000272,-0.00001169,0.00007102,-0.00006076,0.0000
 8589,0.00001169,0.00001436,-0.00002586,0.00000380,0.00003202,0.0000257
 4,-0.00000013,-0.00000562,0.00001306,-0.00032667,0.00013106,0.00028685
 ,-0.00001155,0.00001920,0.00000480,0.00001975,-0.00001075,-0.00000417,
 -0.00000522,0.00000408,0.00000573,0.00000016,-0.00000096,-0.00001133,0
 .00000467,-0.00000981,0.00000245,0.00002442,-0.00000537,-0.00000474,0.
 00309523,0.00110471,-0.00081191,-0.00079470,-0.00282935,0.00211486,-0.
 00073587,-0.00021907,0.00020440,-0.00216462,-0.00066751,-0.00207090,-0
 .00036127,-0.00020770,-0.00025394,0.00026743,0.00036805,0.00022649,0.0
 0005472,0.00004472,0.00011774,-0.00000885,-0.00004988,-0.00027515,0.00
 002879,0.00005404,0.00003689,-0.00005691,-0.00009327,0.00029269,0.0032
 3140,-0.00289349,0.00077096,0.00093848,0.00094828,0.00183191,-0.001506
 11,0.00395268,-0.00423247,-0.00008311,-0.00006691,-0.00008492,0.000003
 57,0.00002671,-0.00000749,0.00003546,0.00004764,0.00000063,-0.00003281
 ,-0.00018733,0.00003263,-0.00000053,0.00010477,0.00003859,0.00002557,0
 .00006653,0.00004086,-0.17033745,-0.17603899,0.15517720,-0.00503529,-0
 .00255566,0.00567589,0.17246126,0.18099598,-0.00001380,0.00000662,-0.0
 0000366,0.00002327,0.00001683,0.00000387,0.00000647,-0.00000069,-0.000
 00190,-0.00001303,-0.00000132,0.00000748,0.00000417,-0.00000053,-0.000
 00479,-0.00000273,-0.00000721,0.00000586,-0.00000868,-0.00000667,-0.00
 000552,-0.00000852,0.00001119,-0.00000559,-0.00002305,-0.00001024,-0.0
 0000101,0.00001032,0.00000043,0.00001307,0.00003537,-0.00000116,-0.000
 00064,-0.00001971,-0.00001071,0.00002495,0.00001196,0.00000086,-0.0000
 0619,-0.00001636,0.00001079,-0.00001483,-0.00000225,-0.00001116,0.0000
 1688,0.00000483,-0.00000073,0.,0.00001335,-0.00000657,0.00000326,-0.00
 002943,-0.00000367,-0.00000596,-0.00000373,0.00000660,0.00001150,-0.00
 005496,-0.00001935,-0.00002605,-0.00000716,0.00000711,0.00000543,-0.00
 000834,-0.00000358,0.00005485,-0.00002151,-0.00000356,-0.00000311,0.00
 011617,-0.00004478,0.00006427,0.00001015,0.00000426,-0.00001004,0.0000
 2247,0.00002214,0.00001188,0.00002135,0.00001736,0.00000649,-0.0000434
 5,-0.00000821,-0.00000773,-0.00001125,0.00004157,0.00004043,0.00001493
 ,-0.00001055,-0.00001058,-0.00001433,0.00000114,0.00000909,0.00000467,
 0.00003308,0.00015805,0.00001898,-0.00003331,-0.00000215,-0.00006037,0
 .00002816,0.00001643,0.00000035,0.00000626,0.00000404,0.00029737,-0.00
 015045,-0.00045931,0.00011493,0.00006886,-0.00004107,0.00005933,-0.000
 01328,-0.00009042,-0.00002871,0.00000786,0.00002486,-0.00016080,-0.000
 40592,-0.00015037,0.00002919,-0.00002917,-0.00000309,0.00002389,0.0006
 6421,0.00002414,-0.00001523,-0.00009792,-0.00002978,-0.00003039,0.0000
 5323,0.00002636,-0.00012011,-0.00012406,-0.00008612,-0.00000017,0.0000
 3311,0.00000404,-0.00004387,-0.00016861,-0.00013438,-0.00010407,0.0002
 0568,0.00013460,0.00108897,-0.00189262,-0.00087550,-0.00002368,0.00022
 594,0.00013897,0.00007674,-0.00012328,0.00011004,-0.00002051,0.0000362
 2,0.00004030,0.00000105,0.00000071,-0.00000651,0.00000148,-0.00001123,
 -0.00000896,-0.00003958,-0.00005164,-0.00000439,-0.00000004,-0.0000463
 8,0.00003210,-0.00001609,0.00005920,-0.00003738,-0.00006830,0.00008009
 ,0.00010591,0.00002991,0.00006045,0.00010304,-0.00001926,0.00001322,0.
 00002179,-0.00000718,0.00000654,-0.00000922,0.00000664,-0.00002175,0.0
 0000152,0.00008059,-0.00006190,-0.00006033,-0.00000885,0.00000517,-0.0
 0000219,-0.00000245,0.00002683,-0.00000042,0.00001144,-0.00002393,0.00
 003620,-0.00010550,0.00023473,0.00001493,0.00000494,-0.00012262,0.0002
 2271,-0.00001604,0.00000550,0.00000226,0.00000273,0.00000038,-0.000014
 72,0.00001135,-0.00000589,0.00000358,-0.00001741,0.00000344,-0.0000106
 1,-0.00001355,0.00000357,-0.00000060,-0.00079017,0.00037149,-0.0016376
 6,0.00091035,0.00033008,0.00015821,0.00019839,-0.00013371,0.00042557,-
 0.00125399,-0.00103074,0.00045194,0.00015577,-0.00008528,-0.00020463,-
 0.00021128,0.00015986,0.00018486,-0.00002299,0.00001668,0.00003491,-0.
 00006679,-0.00016922,0.00026223,-0.00000489,0.00002571,-0.00003533,0.0
 0010589,0.00018774,-0.00033047,0.00012547,0.00047987,-0.00725860,0.001
 90589,0.00170786,0.00073940,-0.00328142,-0.00305852,0.00071877,0.00015
 265,-0.00008868,-0.00002668,-0.00003059,0.00001023,0.00000324,-0.00020
 496,0.00010632,-0.00000508,0.00001132,0.00001388,0.00012286,0.00000981
 ,-0.00003517,-0.00008411,-0.00000214,-0.00000016,-0.00004544,0.1197432
 6,0.13281948,-0.16067983,0.02891587,0.02760599,-0.02394891,-0.14730034
 ,-0.15770833,0.19178470\\-0.00000091,-0.00000104,0.00000083,0.00000027
 ,0.00000040,0.00000024,0.00000006,0.00000029,0.00000051,0.00000005,-0.
 00000005,0.00000076,-0.00000019,-0.00000013,0.00000014,0.00000092,-0.0
 0000109,0.00000093,-0.00000041,0.00000006,0.00000019,0.00000021,-0.000
 00007,0.00000027,0.00000044,0.00000083,-0.00000021,0.00000034,-0.00000
 146,0.00000098,-0.00000019,-0.00000322,0.00000273,0.00000030,0.0000011
 4,-0.00000047,0.00000024,0.00000005,-0.00000014,-0.00000021,-0.0000000
 2,0.00000062,-0.00000030,0.00000008,0.00000042,0.,0.00000021,0.0000006
 0,-0.00000065,0.00000325,-0.00000064,0.00000070,0.00000084,-0.00000024
 ,-0.00000065,0.00000104,0.00000039,0.00000016,0.00000115,-0.00000055,0
 .00000091,-0.00000026,0.00000024,-0.00000144,0.00000176,0.00000075,-0.
 00000070,-0.00000040,0.,-0.00000196,0.00000005,0.00000033,0.00000067,-
 0.00000187,0.00000115,-0.00000061,-0.00000066,-0.00000020,-0.00000024,
 0.00000099,0.00000035,0.00000064,0.00000014,-0.00000031,-0.00000011,-0
 .00000018,-0.00000260,0.00000055,0.00000117,0.00000029,0.00000031,-0.0
 0000040,0.00000069,0.00000021,0.00000051,-0.00000138,0.00000019,-0.000
 00091,-0.00000008,0.00000550,-0.00000094,-0.00000312,0.00000058,-0.000
 00017,-0.00000012,-0.00000123,-0.00000001,0.00000156,0.00000642,0.0000
 0159,0.00000813,-0.00000789,-0.00000602,-0.00000013,0.00000012,0.00000
 169,0.00000089,0.00000471,-0.00000027,-0.00000087,-0.00000571,-0.00000
 151,0.00000056,0.00000205,-0.00000063,-0.00000091,0.00000045,0.0000001
 4,0.00000027,0.00000015,-0.00000052,0.00000017,-0.00000176,0.00000373,
 0.00000228,0.00000106,-0.00000183,0.00000246,0.00000170,0.00000197,-0.
 00000151,0.00000036,-0.00000005,-0.00000046,-0.00000123,-0.00000107,-0
 .00000340,-0.00000026,0.00000033,-0.00000021,0.00000126,-0.00000197,0.
 00000012,0.00000010,0.00000017,-0.00000021,-0.00000090,-0.00000067,0.0
 0000032,-0.00000010,-0.00000015,-0.00000013,0.00000154,-0.00000046,0.0
 0000104,-0.00000055,0.00000057,0.00000035,0.00000013,-0.00000207,-0.00
 000107,-0.00000196,0.00000027,-0.00000079,-0.00000101,0.00000017,0.000
 00090,-0.00000022,0.00000013,-0.00000046,0.00000011,-0.00000040,-0.000
 00017,-0.00000017,0.00000030,-0.00000015,-0.00000036,-0.00000018,-0.00
 000004,-0.00000023,-0.00000016,0.00000013,0.00000058,0.00000031,0.0000
 0013,0.00000015,0.00000040,0.00000003,0.00000202,0.00000539,-0.0000018
 3,-0.00000189,0.00000100,-0.00000184,0.00000064,-0.00000012,0.00000129
 ,0.00000017,0.00000031,0.00000107,0.00000036,-0.00000016,0.00000072,-0
 .00000037,0.00000023,0.00000067,0.00000018,-0.00000046,0.00000112,-0.0
 0000099,0.00001002,0.00001099,0.00000362,0.00000744,-0.00000412,-0.000
 00835,-0.00000815,-0.00001371,-0.00000035,-0.00000842,0.00000774,0.000
 00130,0.00000497,0.00000300,0.00000271,-0.00000566,0.00000096,-0.00000
 334,0.00000137,-0.00000599,0.00000354,0.00000540,-0.00000589,-0.000003
 65,0.00000633,0.00000016,0.00000163,-0.00000365,0.00000166,0.00000761,
 0.00001378,0.00000410,-0.00000065,-0.00000089,-0.00000220,0.00000134,-
 0.00001008,-0.00000479,0.00001512,0.00000797,-0.00000711,-0.00000937,-
 0.00000748,0.00000427,-0.00000437,0.00000025,0.00000159,-0.00000455,-0
 .00000072,-0.00001269,-0.00000236,0.00000407,0.00000413,0.00000652,-0.
 00000655,0.00000597,-0.00001776,-0.00001616,0.00001294,0.00000199,0.00
 000302,-0.00000737,0.00000722,0.00000205,-0.00000705\\\@


 THE MOST SERIOUS THREAT TO THE SURVIVAL OF MANKIND IS NOT NOW
 IGNORANCE IN THE TRADITIONAL SENSE,
 BUT A MORALLY NEUTRAL, AN INSENSITIVE OR INHIBITED HUMAN INTELLIGENCE.

                     -- MARGO JEFFERSON IN NEWSWEEK, SEPTEMBER 2, 1974
 Job cpu time:      25 days 13 hours 17 minutes 24.8 seconds.
 Elapsed time:       1 days  7 hours  1 minutes 56.4 seconds.
 File lengths (MBytes):  RWF=  53392 Int=      0 D2E=      0 Chk=    193 Scr=      1
 Normal termination of Gaussian 16 at Sun Apr 21 21:34:20 2024.
