 Entering Gaussian System, Link 0=g16
 Input=8water-v2-ofreq.gjf
 Output=8water-v2-ofreq.log
 Initial command:
 /packages/apps/gaussian/g16/g16/l1.exe "/scratch/mdturne9/2-5-methyl/ofreq/Gau-3069296.inp" -scrdir="/scratch/mdturne9/2-5-methyl/ofreq/"
 Entering Link 1 = /packages/apps/gaussian/g16/g16/l1.exe PID=   3069297.
  
 Copyright (c) 1988,1990,1992,1993,1995,1998,2003,2009,2016,
            Gaussian, Inc.  All Rights Reserved.
  
 This is part of the Gaussian(R) 16 program.  It is based on
 the Gaussian(R) 09 system (copyright 2009, Gaussian, Inc.),
 the Gaussian(R) 03 system (copyright 2003, Gaussian, Inc.),
 the Gaussian(R) 98 system (copyright 1998, Gaussian, Inc.),
 the Gaussian(R) 94 system (copyright 1995, Gaussian, Inc.),
 the Gaussian 92(TM) system (copyright 1992, Gaussian, Inc.),
 the Gaussian 90(TM) system (copyright 1990, Gaussian, Inc.),
 the Gaussian 88(TM) system (copyright 1988, Gaussian, Inc.),
 the Gaussian 86(TM) system (copyright 1986, Carnegie Mellon
 University), and the Gaussian 82(TM) system (copyright 1983,
 Carnegie Mellon University). Gaussian is a federally registered
 trademark of Gaussian, Inc.
  
 This software contains proprietary and confidential information,
 including trade secrets, belonging to Gaussian, Inc.
  
 This software is provided under written license and may be
 used, copied, transmitted, or stored only in accord with that
 written license.
  
 The following legend is applicable only to US Government
 contracts under FAR:
  
                    RESTRICTED RIGHTS LEGEND
  
 Use, reproduction and disclosure by the US Government is
 subject to restrictions as set forth in subparagraphs (a)
 and (c) of the Commercial Computer Software - Restricted
 Rights clause in FAR 52.227-19.
  
 Gaussian, Inc.
 340 Quinnipiac St., Bldg. 40, Wallingford CT 06492
  
  
 ---------------------------------------------------------------
 Warning -- This program may not be used in any manner that
 competes with the business of Gaussian, Inc. or will provide
 assistance to any competitor of Gaussian, Inc.  The licensee
 of this program is prohibited from giving any competitor of
 Gaussian, Inc. access to this program.  By using this program,
 the user acknowledges that Gaussian, Inc. is engaged in the
 business of creating and licensing software in the field of
 computational chemistry and represents and warrants to the
 licensee that it is not a competitor of Gaussian, Inc. and that
 it will not use this program in any manner prohibited above.
 ---------------------------------------------------------------
  

 Cite this work as:
 Gaussian 16, Revision A.03,
 M. J. Frisch, G. W. Trucks, H. B. Schlegel, G. E. Scuseria, 
 M. A. Robb, J. R. Cheeseman, G. Scalmani, V. Barone, 
 G. A. Petersson, H. Nakatsuji, X. Li, M. Caricato, A. V. Marenich, 
 J. Bloino, B. G. Janesko, R. Gomperts, B. Mennucci, H. P. Hratchian, 
 J. V. Ortiz, A. F. Izmaylov, J. L. Sonnenberg, D. Williams-Young, 
 F. Ding, F. Lipparini, F. Egidi, J. Goings, B. Peng, A. Petrone, 
 T. Henderson, D. Ranasinghe, V. G. Zakrzewski, J. Gao, N. Rega, 
 G. Zheng, W. Liang, M. Hada, M. Ehara, K. Toyota, R. Fukuda, 
 J. Hasegawa, M. Ishida, T. Nakajima, Y. Honda, O. Kitao, H. Nakai, 
 T. Vreven, K. Throssell, J. A. Montgomery, Jr., J. E. Peralta, 
 F. Ogliaro, M. J. Bearpark, J. J. Heyd, E. N. Brothers, K. N. Kudin, 
 V. N. Staroverov, T. A. Keith, R. Kobayashi, J. Normand, 
 K. Raghavachari, A. P. Rendell, J. C. Burant, S. S. Iyengar, 
 J. Tomasi, M. Cossi, J. M. Millam, M. Klene, C. Adamo, R. Cammi, 
 J. W. Ochterski, R. L. Martin, K. Morokuma, O. Farkas, 
 J. B. Foresman, and D. J. Fox, Gaussian, Inc., Wallingford CT, 2016.
 
 ******************************************
 Gaussian 16:  ES64L-G16RevA.03 25-Dec-2016
                31-Mar-2024 
 ******************************************
 %nprocshared=40
 Will use up to   40 processors via shared memory.
 %mem=12GB
 %chk=8water-v2-ofreq.chk
 ---------------------------------
 #p opt freq wb97xd/6-311+g(2d,2p)
 ---------------------------------
 1/18=20,19=15,26=3,38=1/1,3;
 2/9=110,12=2,17=6,18=5,40=1/2;
 3/5=4,6=6,7=212,11=2,25=1,30=1,71=1,74=-58/1,2,3;
 4//1;
 5/5=2,38=5/2;
 6/7=2,8=2,9=2,10=2,28=1/1;
 7//1,2,3,16;
 1/18=20,19=15,26=3/3(2);
 2/9=110/2;
 99//99;
 2/9=110/2;
 3/5=4,6=6,7=212,11=2,25=1,30=1,71=1,74=-58/1,2,3;
 4/5=5,16=3,69=1/1;
 5/5=2,38=5/2;
 7//1,2,3,16;
 1/18=20,19=15,26=3/3(-5);
 2/9=110/2;
 6/7=2,8=2,9=2,10=2,19=2,28=1/1;
 99/9=1/99;
 Leave Link    1 at Sun Mar 31 11:52:22 2024, MaxMem=  1610612736 cpu:              17.5 elap:               0.7
 (Enter /packages/apps/gaussian/g16/g16/l101.exe)
 --------
 Required
 --------
 Symbolic Z-matrix:
 Charge =  0 Multiplicity = 1
 C                    0     5.41418   2.71348  -2.19055  H 
 C                    0     5.09861   2.07806  -0.83612  H 
 H                    0     5.20593   3.78334  -2.18361  H 
 H                    0     6.46641   2.57146  -2.43911  H 
 H                    0     4.82493   2.26189  -2.9899   H 
 C                    0     5.34131   0.55635  -0.86596  H 
 H                    0     5.77509   2.51253  -0.09432  H 
 C                    0     5.33225  -0.08867   0.52164  H 
 H                    0     6.32209   0.01155   0.9733   H 
 H                    0     4.65364   0.45823   1.179    H 
 C                    0     4.93378  -1.56921   0.54098  H 
 C                    0     5.07375  -2.1369    1.9638   H 
 C                    0     4.80794  -3.63338   2.07175  H 
 H                    0     4.97232  -3.98468   3.09018  H 
 H                    0     3.7815   -3.87642   1.79616  H 
 H                    0     5.4716   -4.19723   1.41291  H 
 C                    0     3.68044   2.35015  -0.37692  H 
 C                    0     2.59536   2.05584  -1.19978  H 
 C                    0     3.41717   2.78933   0.91704  H 
 C                    0     1.29542   2.14837  -0.73705  H 
 H                    0     2.7604    1.69911  -2.20775  H 
 C                    0     2.11583   2.88187   1.38918  H 
 H                    0     4.2423    3.02505   1.57767  H 
 C                    0     1.03873   2.55168   0.57279  H 
 H                    0     0.47831   1.86377  -1.38766  H 
 H                    0     1.94091   3.17828   2.41672  H 
 C                    0     3.53471  -1.80084   0.00323  H 
 C                    0     3.28657  -2.81701  -0.91441  H 
 C                    0     2.45592  -1.02221   0.41983  H 
 C                    0     2.00516  -3.06309  -1.38586  H 
 H                    0     4.11054  -3.42251  -1.27083  H 
 C                    0     1.17878  -1.25411  -0.05903  H 
 H                    0     2.61179  -0.19603   1.102    H 
 C                    0     0.93129  -2.29281  -0.95379  H 
 H                    0     1.8471   -3.84912  -2.11472  H 
 H                    0     0.35786  -0.60174   0.21506  H 
 C                    0    -0.45907  -2.50625  -1.47604  H 
 H                    0    -1.00352  -1.56517  -1.49306  H 
 H                    0    -0.45873  -2.9166   -2.48342  H 
 C                    0    -0.35597   2.49463   1.1196   H 
 H                    0    -0.89831   1.66823   0.65634  H 
 H                    0    -0.35225   2.3454    2.19735  H 
 C                    0    -2.69522  -3.44685  -1.20714  H 
 H                    0    -3.28418  -4.18851  -0.67491  H 
 H                    0    -3.12955  -2.46242  -1.05672  H 
 H                    0    -2.64237  -3.66315  -2.27066  H 
 C                    0    -1.37311  -3.03044   0.78531  H 
 H                    0    -0.39431  -3.14815   1.23829  H 
 H                    0    -1.68724  -1.99343   0.82612  H 
 H                    0    -2.1049   -3.63774   1.30572  H 
 C                    0    -0.76647  -4.83725  -0.71207  H 
 H                    0    -0.7748   -5.16954  -1.74735  H 
 H                    0     0.24867  -4.84086  -0.32612  H 
 H                    0    -1.3937   -5.48681  -0.1073   H 
 C                    0    -2.53862   3.45702   1.52439  H 
 H                    0    -3.20998   4.28452   1.31271  H 
 H                    0    -2.9399    2.53507   1.11669  H 
 H                    0    -2.38926   3.34796   2.59527  H 
 C                    0    -0.59715   4.92948   1.47582  H 
 H                    0    -0.43368   4.75336   2.53619  H 
 H                    0     0.35165   5.12136   0.98301  H 
 H                    0    -1.26844   5.77357   1.33922  H 
 C                    0    -1.44019   3.94017  -0.58114  H 
 H                    0    -0.48131   4.08284  -1.06866  H 
 H                    0    -1.96543   3.07996  -0.9874   H 
 H                    0    -2.06204   4.82377  -0.70151  H 
 N                    0    -1.30915  -3.45833  -0.64479  H 
 N                    0    -1.21806   3.72329   0.87819  H 
 H                    0     6.29699   0.35709  -1.35682  H 
 H                    0     4.57206   0.10208  -1.49578  H 
 H                    0     4.39228  -1.5933    2.62461  H 
 H                    0     6.08462  -1.92097   2.31819  H 
 H                    0     5.62602  -2.11894  -0.1054   H 
 C                    0    -2.79619   0.05063  -0.26413  H 
 O                    0    -3.14303   0.13515   0.97893  H 
 O                    0    -3.66468  -0.29057  -1.14606  H 
 O                    0    -1.59016   0.2965   -0.5995   H 
 O                    0    -5.38017   1.78805   0.92587  L 
 H                    0    -4.64042   1.17093   1.07922  L 
 H                    0    -6.06204   1.19306   0.59206  L 
 O                    0    -1.28078   1.414    -3.02145  L 
 H                    0    -2.0704    1.93688  -3.16962  L 
 H                    0    -1.44034   0.96306  -2.15979  L 
 O                    0    -4.43627  -2.23605   1.50799  L 
 H                    0    -5.31971  -2.10863   1.14906  L 
 H                    0    -4.01705  -1.36646   1.35566  L 
 O                    0    -6.18235  -0.72246  -0.30048  L 
 H                    0    -5.26424  -0.57913  -0.6378   L 
 H                    0    -6.72255  -0.87836  -1.07355  L 
 O                    0    -2.56513  -1.21599  -3.56121  L 
 H                    0    -3.01632  -0.89013  -2.76151  L 
 H                    0    -2.0072   -0.4678   -3.79757  L 
 O                    0    -1.24957  -0.02806   2.86563  L 
 H                    0    -0.48395  -0.42113   2.44676  L 
 H                    0    -1.91584   0.07473   2.14148  L 
 O                    0    -4.12439   2.46779  -1.57307  L 
 H                    0    -4.66162   2.48135  -0.76511  L 
 H                    0    -4.03403   1.51462  -1.72039  L 
 O                    0    -2.48635  -2.60852   3.60848  L 
 H                    0    -2.1221   -1.71553   3.5582   L 
 H                    0    -3.32114  -2.55618   3.12594  L 
 
 Add virtual bond connecting atoms H95        and O75        Dist= 3.20D+00.
 Add virtual bond connecting atoms H88        and O76        Dist= 3.22D+00.
 Add virtual bond connecting atoms H83        and O77        Dist= 3.22D+00.
 Add virtual bond connecting atoms H86        and O75        Dist= 3.36D+00.
 Add virtual bond connecting atoms H79        and O75        Dist= 3.45D+00.
 Add virtual bond connecting atoms H91        and O76        Dist= 3.48D+00.
 Add virtual bond connecting atoms H97        and O78        Dist= 3.71D+00.
 Add virtual bond connecting atoms H98        and O76        Dist= 3.65D+00.
 Add virtual bond connecting atoms O77        and H41        Dist= 3.75D+00.
 Add virtual bond connecting atoms H100       and O93        Dist= 3.82D+00.
 Add virtual bond connecting atoms H101       and O84        Dist= 3.76D+00.
 ITRead=  0  0  0  0  0  0  0  0  0  0  0  0  0  0  0  0  0  0  0  0
 ITRead=  0  0  0  0  0  0  0  0  0  0  0  0  0  0  0  0  0  0  0  0
 ITRead=  0  0  0  0  0  0  0  0  0  0  0  0  0  0  0  0  0  0  0  0
 ITRead=  0  0  0  0  0  0  0  0  0  0  0  0  0  0  0  0  0  0  0  0
 ITRead=  0  0  0  0  0  0  0  0  0  0  0  0  0  0  0  0  0  0  0  0
 ITRead=  0
 MicOpt= -1 -1 -1 -1 -1 -1 -1 -1 -1 -1 -1 -1 -1 -1 -1 -1 -1 -1 -1 -1
 MicOpt= -1 -1 -1 -1 -1 -1 -1 -1 -1 -1 -1 -1 -1 -1 -1 -1 -1 -1 -1 -1
 MicOpt= -1 -1 -1 -1 -1 -1 -1 -1 -1 -1 -1 -1 -1 -1 -1 -1 -1 -1 -1 -1
 MicOpt= -1 -1 -1 -1 -1 -1 -1 -1 -1 -1 -1 -1 -1 -1 -1 -1 -1 -1 -1 -1
 MicOpt= -1 -1 -1 -1 -1 -1 -1 -1 -1 -1 -1 -1 -1 -1 -1 -1 -1 -1 -1 -1
 MicOpt= -1
 NAtoms=    101 NQM=      101 NQMF=       0 NMMI=      0 NMMIF=      0
                NMic=       0 NMicF=      0.
                    Isotopes and Nuclear Properties:
 (Nuclear quadrupole moments (NQMom) in fm**2, nuclear magnetic moments (NMagM)
  in nuclear magnetons)

  Atom         1           2           3           4           5           6           7           8           9          10
 IAtWgt=          12          12           1           1           1          12           1          12           1           1
 AtmWgt=  12.0000000  12.0000000   1.0078250   1.0078250   1.0078250  12.0000000   1.0078250  12.0000000   1.0078250   1.0078250
 NucSpn=           0           0           1           1           1           0           1           0           1           1
 AtZEff=  -0.0000000  -0.0000000  -0.0000000  -0.0000000  -0.0000000  -0.0000000  -0.0000000  -0.0000000  -0.0000000  -0.0000000
 NQMom=    0.0000000   0.0000000   0.0000000   0.0000000   0.0000000   0.0000000   0.0000000   0.0000000   0.0000000   0.0000000
 NMagM=    0.0000000   0.0000000   2.7928460   2.7928460   2.7928460   0.0000000   2.7928460   0.0000000   2.7928460   2.7928460
 AtZNuc=   6.0000000   6.0000000   1.0000000   1.0000000   1.0000000   6.0000000   1.0000000   6.0000000   1.0000000   1.0000000

  Atom        11          12          13          14          15          16          17          18          19          20
 IAtWgt=          12          12          12           1           1           1          12          12          12          12
 AtmWgt=  12.0000000  12.0000000  12.0000000   1.0078250   1.0078250   1.0078250  12.0000000  12.0000000  12.0000000  12.0000000
 NucSpn=           0           0           0           1           1           1           0           0           0           0
 AtZEff=  -0.0000000  -0.0000000  -0.0000000  -0.0000000  -0.0000000  -0.0000000  -0.0000000  -0.0000000  -0.0000000  -0.0000000
 NQMom=    0.0000000   0.0000000   0.0000000   0.0000000   0.0000000   0.0000000   0.0000000   0.0000000   0.0000000   0.0000000
 NMagM=    0.0000000   0.0000000   0.0000000   2.7928460   2.7928460   2.7928460   0.0000000   0.0000000   0.0000000   0.0000000
 AtZNuc=   6.0000000   6.0000000   6.0000000   1.0000000   1.0000000   1.0000000   6.0000000   6.0000000   6.0000000   6.0000000

  Atom        21          22          23          24          25          26          27          28          29          30
 IAtWgt=           1          12           1          12           1           1          12          12          12          12
 AtmWgt=   1.0078250  12.0000000   1.0078250  12.0000000   1.0078250   1.0078250  12.0000000  12.0000000  12.0000000  12.0000000
 NucSpn=           1           0           1           0           1           1           0           0           0           0
 AtZEff=  -0.0000000  -0.0000000  -0.0000000  -0.0000000  -0.0000000  -0.0000000  -0.0000000  -0.0000000  -0.0000000  -0.0000000
 NQMom=    0.0000000   0.0000000   0.0000000   0.0000000   0.0000000   0.0000000   0.0000000   0.0000000   0.0000000   0.0000000
 NMagM=    2.7928460   0.0000000   2.7928460   0.0000000   2.7928460   2.7928460   0.0000000   0.0000000   0.0000000   0.0000000
 AtZNuc=   1.0000000   6.0000000   1.0000000   6.0000000   1.0000000   1.0000000   6.0000000   6.0000000   6.0000000   6.0000000

  Atom        31          32          33          34          35          36          37          38          39          40
 IAtWgt=           1          12           1          12           1           1          12           1           1          12
 AtmWgt=   1.0078250  12.0000000   1.0078250  12.0000000   1.0078250   1.0078250  12.0000000   1.0078250   1.0078250  12.0000000
 NucSpn=           1           0           1           0           1           1           0           1           1           0
 AtZEff=  -0.0000000  -0.0000000  -0.0000000  -0.0000000  -0.0000000  -0.0000000  -0.0000000  -0.0000000  -0.0000000  -0.0000000
 NQMom=    0.0000000   0.0000000   0.0000000   0.0000000   0.0000000   0.0000000   0.0000000   0.0000000   0.0000000   0.0000000
 NMagM=    2.7928460   0.0000000   2.7928460   0.0000000   2.7928460   2.7928460   0.0000000   2.7928460   2.7928460   0.0000000
 AtZNuc=   1.0000000   6.0000000   1.0000000   6.0000000   1.0000000   1.0000000   6.0000000   1.0000000   1.0000000   6.0000000

  Atom        41          42          43          44          45          46          47          48          49          50
 IAtWgt=           1           1          12           1           1           1          12           1           1           1
 AtmWgt=   1.0078250   1.0078250  12.0000000   1.0078250   1.0078250   1.0078250  12.0000000   1.0078250   1.0078250   1.0078250
 NucSpn=           1           1           0           1           1           1           0           1           1           1
 AtZEff=  -0.0000000  -0.0000000  -0.0000000  -0.0000000  -0.0000000  -0.0000000  -0.0000000  -0.0000000  -0.0000000  -0.0000000
 NQMom=    0.0000000   0.0000000   0.0000000   0.0000000   0.0000000   0.0000000   0.0000000   0.0000000   0.0000000   0.0000000
 NMagM=    2.7928460   2.7928460   0.0000000   2.7928460   2.7928460   2.7928460   0.0000000   2.7928460   2.7928460   2.7928460
 AtZNuc=   1.0000000   1.0000000   6.0000000   1.0000000   1.0000000   1.0000000   6.0000000   1.0000000   1.0000000   1.0000000

  Atom        51          52          53          54          55          56          57          58          59          60
 IAtWgt=          12           1           1           1          12           1           1           1          12           1
 AtmWgt=  12.0000000   1.0078250   1.0078250   1.0078250  12.0000000   1.0078250   1.0078250   1.0078250  12.0000000   1.0078250
 NucSpn=           0           1           1           1           0           1           1           1           0           1
 AtZEff=  -0.0000000  -0.0000000  -0.0000000  -0.0000000  -0.0000000  -0.0000000  -0.0000000  -0.0000000  -0.0000000  -0.0000000
 NQMom=    0.0000000   0.0000000   0.0000000   0.0000000   0.0000000   0.0000000   0.0000000   0.0000000   0.0000000   0.0000000
 NMagM=    0.0000000   2.7928460   2.7928460   2.7928460   0.0000000   2.7928460   2.7928460   2.7928460   0.0000000   2.7928460
 AtZNuc=   6.0000000   1.0000000   1.0000000   1.0000000   6.0000000   1.0000000   1.0000000   1.0000000   6.0000000   1.0000000

  Atom        61          62          63          64          65          66          67          68          69          70
 IAtWgt=           1           1          12           1           1           1          14          14           1           1
 AtmWgt=   1.0078250   1.0078250  12.0000000   1.0078250   1.0078250   1.0078250  14.0030740  14.0030740   1.0078250   1.0078250
 NucSpn=           1           1           0           1           1           1           2           2           1           1
 AtZEff=  -0.0000000  -0.0000000  -0.0000000  -0.0000000  -0.0000000  -0.0000000  -0.0000000  -0.0000000  -0.0000000  -0.0000000
 NQMom=    0.0000000   0.0000000   0.0000000   0.0000000   0.0000000   0.0000000   2.0440000   2.0440000   0.0000000   0.0000000
 NMagM=    2.7928460   2.7928460   0.0000000   2.7928460   2.7928460   2.7928460   0.4037610   0.4037610   2.7928460   2.7928460
 AtZNuc=   1.0000000   1.0000000   6.0000000   1.0000000   1.0000000   1.0000000   7.0000000   7.0000000   1.0000000   1.0000000

  Atom        71          72          73          74          75          76          77          78          79          80
 IAtWgt=           1           1           1          12          16          16          16          16           1           1
 AtmWgt=   1.0078250   1.0078250   1.0078250  12.0000000  15.9949146  15.9949146  15.9949146  15.9949146   1.0078250   1.0078250
 NucSpn=           1           1           1           0           0           0           0           0           1           1
 AtZEff=  -0.0000000  -0.0000000  -0.0000000  -0.0000000  -0.0000000  -0.0000000  -0.0000000  -0.0000000  -0.0000000  -0.0000000
 NQMom=    0.0000000   0.0000000   0.0000000   0.0000000   0.0000000   0.0000000   0.0000000   0.0000000   0.0000000   0.0000000
 NMagM=    2.7928460   2.7928460   2.7928460   0.0000000   0.0000000   0.0000000   0.0000000   0.0000000   2.7928460   2.7928460
 AtZNuc=   1.0000000   1.0000000   1.0000000   6.0000000   8.0000000   8.0000000   8.0000000   8.0000000   1.0000000   1.0000000

  Atom        81          82          83          84          85          86          87          88          89          90
 IAtWgt=          16           1           1          16           1           1          16           1           1          16
 AtmWgt=  15.9949146   1.0078250   1.0078250  15.9949146   1.0078250   1.0078250  15.9949146   1.0078250   1.0078250  15.9949146
 NucSpn=           0           1           1           0           1           1           0           1           1           0
 AtZEff=  -0.0000000  -0.0000000  -0.0000000  -0.0000000  -0.0000000  -0.0000000  -0.0000000  -0.0000000  -0.0000000  -0.0000000
 NQMom=    0.0000000   0.0000000   0.0000000   0.0000000   0.0000000   0.0000000   0.0000000   0.0000000   0.0000000   0.0000000
 NMagM=    0.0000000   2.7928460   2.7928460   0.0000000   2.7928460   2.7928460   0.0000000   2.7928460   2.7928460   0.0000000
 AtZNuc=   8.0000000   1.0000000   1.0000000   8.0000000   1.0000000   1.0000000   8.0000000   1.0000000   1.0000000   8.0000000

  Atom        91          92          93          94          95          96          97          98          99         100
 IAtWgt=           1           1          16           1           1          16           1           1          16           1
 AtmWgt=   1.0078250   1.0078250  15.9949146   1.0078250   1.0078250  15.9949146   1.0078250   1.0078250  15.9949146   1.0078250
 NucSpn=           1           1           0           1           1           0           1           1           0           1
 AtZEff=  -0.0000000  -0.0000000  -0.0000000  -0.0000000  -0.0000000  -0.0000000  -0.0000000  -0.0000000  -0.0000000  -0.0000000
 NQMom=    0.0000000   0.0000000   0.0000000   0.0000000   0.0000000   0.0000000   0.0000000   0.0000000   0.0000000   0.0000000
 NMagM=    2.7928460   2.7928460   0.0000000   2.7928460   2.7928460   0.0000000   2.7928460   2.7928460   0.0000000   2.7928460
 AtZNuc=   1.0000000   1.0000000   8.0000000   1.0000000   1.0000000   8.0000000   1.0000000   1.0000000   8.0000000   1.0000000

  Atom       101
 IAtWgt=           1
 AtmWgt=   1.0078250
 NucSpn=           1
 AtZEff=  -0.0000000
 NQMom=    0.0000000
 NMagM=    2.7928460
 AtZNuc=   1.0000000
 Leave Link  101 at Sun Mar 31 11:52:23 2024, MaxMem=  1610612736 cpu:              10.5 elap:               0.4
 (Enter /packages/apps/gaussian/g16/g16/l103.exe)

 GradGradGradGradGradGradGradGradGradGradGradGradGradGradGradGradGradGrad
 Berny optimization.
 Initialization pass.
                           ----------------------------
                           !    Initial Parameters    !
                           ! (Angstroms and Degrees)  !
 --------------------------                            --------------------------
 ! Name  Definition              Value          Derivative Info.                !
 --------------------------------------------------------------------------------
 ! R1    R(1,2)                  1.529          estimate D2E/DX2                !
 ! R2    R(1,3)                  1.09           estimate D2E/DX2                !
 ! R3    R(1,4)                  1.0905         estimate D2E/DX2                !
 ! R4    R(1,5)                  1.0909         estimate D2E/DX2                !
 ! R5    R(2,6)                  1.5412         estimate D2E/DX2                !
 ! R6    R(2,7)                  1.0939         estimate D2E/DX2                !
 ! R7    R(2,17)                 1.5153         estimate D2E/DX2                !
 ! R8    R(6,8)                  1.5302         estimate D2E/DX2                !
 ! R9    R(6,69)                 1.0927         estimate D2E/DX2                !
 ! R10   R(6,70)                 1.0931         estimate D2E/DX2                !
 ! R11   R(8,9)                  1.0926         estimate D2E/DX2                !
 ! R12   R(8,10)                 1.0917         estimate D2E/DX2                !
 ! R13   R(8,11)                 1.5333         estimate D2E/DX2                !
 ! R14   R(11,12)                1.5383         estimate D2E/DX2                !
 ! R15   R(11,27)                1.5167         estimate D2E/DX2                !
 ! R16   R(11,73)                1.0951         estimate D2E/DX2                !
 ! R17   R(12,13)                1.5237         estimate D2E/DX2                !
 ! R18   R(12,71)                1.0939         estimate D2E/DX2                !
 ! R19   R(12,72)                1.0927         estimate D2E/DX2                !
 ! R20   R(13,14)                1.0898         estimate D2E/DX2                !
 ! R21   R(13,15)                1.0902         estimate D2E/DX2                !
 ! R22   R(13,16)                1.092          estimate D2E/DX2                !
 ! R23   R(17,18)                1.3932         estimate D2E/DX2                !
 ! R24   R(17,19)                1.3916         estimate D2E/DX2                !
 ! R25   R(18,20)                1.3829         estimate D2E/DX2                !
 ! R26   R(18,21)                1.0819         estimate D2E/DX2                !
 ! R27   R(19,22)                1.3874         estimate D2E/DX2                !
 ! R28   R(19,23)                1.083          estimate D2E/DX2                !
 ! R29   R(20,24)                1.3943         estimate D2E/DX2                !
 ! R30   R(20,25)                1.0826         estimate D2E/DX2                !
 ! R31   R(22,24)                1.3913         estimate D2E/DX2                !
 ! R32   R(22,26)                1.0837         estimate D2E/DX2                !
 ! R33   R(24,40)                1.4991         estimate D2E/DX2                !
 ! R34   R(27,28)                1.3915         estimate D2E/DX2                !
 ! R35   R(27,29)                1.3941         estimate D2E/DX2                !
 ! R36   R(28,30)                1.3874         estimate D2E/DX2                !
 ! R37   R(28,31)                1.0829         estimate D2E/DX2                !
 ! R38   R(29,32)                1.3835         estimate D2E/DX2                !
 ! R39   R(29,33)                1.0827         estimate D2E/DX2                !
 ! R40   R(30,34)                1.3904         estimate D2E/DX2                !
 ! R41   R(30,35)                1.0835         estimate D2E/DX2                !
 ! R42   R(32,34)                1.3931         estimate D2E/DX2                !
 ! R43   R(32,36)                1.0838         estimate D2E/DX2                !
 ! R44   R(34,37)                1.5005         estimate D2E/DX2                !
 ! R45   R(37,38)                1.0874         estimate D2E/DX2                !
 ! R46   R(37,39)                1.0878         estimate D2E/DX2                !
 ! R47   R(37,67)                1.5232         estimate D2E/DX2                !
 ! R48   R(40,41)                1.0916         estimate D2E/DX2                !
 ! R49   R(40,42)                1.088          estimate D2E/DX2                !
 ! R50   R(40,68)                1.5202         estimate D2E/DX2                !
 ! R51   R(41,77)                1.9843         estimate D2E/DX2                !
 ! R52   R(43,44)                1.0864         estimate D2E/DX2                !
 ! R53   R(43,45)                1.0865         estimate D2E/DX2                !
 ! R54   R(43,46)                1.0866         estimate D2E/DX2                !
 ! R55   R(43,67)                1.4958         estimate D2E/DX2                !
 ! R56   R(47,48)                1.0849         estimate D2E/DX2                !
 ! R57   R(47,49)                1.0843         estimate D2E/DX2                !
 ! R58   R(47,50)                1.0841         estimate D2E/DX2                !
 ! R59   R(47,67)                1.4941         estimate D2E/DX2                !
 ! R60   R(51,52)                1.0873         estimate D2E/DX2                !
 ! R61   R(51,53)                1.086          estimate D2E/DX2                !
 ! R62   R(51,54)                1.0868         estimate D2E/DX2                !
 ! R63   R(51,67)                1.4834         estimate D2E/DX2                !
 ! R64   R(55,56)                1.0864         estimate D2E/DX2                !
 ! R65   R(55,57)                1.085          estimate D2E/DX2                !
 ! R66   R(55,58)                1.0867         estimate D2E/DX2                !
 ! R67   R(55,68)                1.4941         estimate D2E/DX2                !
 ! R68   R(59,60)                1.0873         estimate D2E/DX2                !
 ! R69   R(59,61)                1.0862         estimate D2E/DX2                !
 ! R70   R(59,62)                1.0871         estimate D2E/DX2                !
 ! R71   R(59,68)                1.4824         estimate D2E/DX2                !
 ! R72   R(63,64)                1.0851         estimate D2E/DX2                !
 ! R73   R(63,65)                1.0867         estimate D2E/DX2                !
 ! R74   R(63,66)                1.0872         estimate D2E/DX2                !
 ! R75   R(63,68)                1.492          estimate D2E/DX2                !
 ! R76   R(74,75)                1.2933         estimate D2E/DX2                !
 ! R77   R(74,76)                1.2839         estimate D2E/DX2                !
 ! R78   R(74,77)                1.2757         estimate D2E/DX2                !
 ! R79   R(75,79)                1.8235         estimate D2E/DX2                !
 ! R80   R(75,86)                1.7778         estimate D2E/DX2                !
 ! R81   R(75,95)                1.6915         estimate D2E/DX2                !
 ! R82   R(76,88)                1.703          estimate D2E/DX2                !
 ! R83   R(76,91)                1.8411         estimate D2E/DX2                !
 ! R84   R(76,98)                1.93           estimate D2E/DX2                !
 ! R85   R(77,83)                1.7033         estimate D2E/DX2                !
 ! R86   R(78,79)                0.9755         estimate D2E/DX2                !
 ! R87   R(78,80)                0.9646         estimate D2E/DX2                !
 ! R88   R(78,97)                1.9638         estimate D2E/DX2                !
 ! R89   R(81,82)                0.9586         estimate D2E/DX2                !
 ! R90   R(81,83)                0.9855         estimate D2E/DX2                !
 ! R91   R(84,85)                0.962          estimate D2E/DX2                !
 ! R92   R(84,86)                0.9773         estimate D2E/DX2                !
 ! R93   R(84,101)               1.9909         estimate D2E/DX2                !
 ! R94   R(87,88)                0.9886         estimate D2E/DX2                !
 ! R95   R(87,89)                0.9559         estimate D2E/DX2                !
 ! R96   R(90,91)                0.9743         estimate D2E/DX2                !
 ! R97   R(90,92)                0.9628         estimate D2E/DX2                !
 ! R98   R(93,94)                0.9571         estimate D2E/DX2                !
 ! R99   R(93,95)                0.9894         estimate D2E/DX2                !
 ! R100  R(93,100)               2.022          estimate D2E/DX2                !
 ! R101  R(96,97)                0.9704         estimate D2E/DX2                !
 ! R102  R(96,98)                0.9687         estimate D2E/DX2                !
 ! R103  R(99,100)               0.9657         estimate D2E/DX2                !
 ! R104  R(99,101)               0.9656         estimate D2E/DX2                !
 ! A1    A(2,1,3)              111.2751         estimate D2E/DX2                !
 ! A2    A(2,1,4)              110.3001         estimate D2E/DX2                !
 ! A3    A(2,1,5)              111.4428         estimate D2E/DX2                !
 ! A4    A(3,1,4)              108.2788         estimate D2E/DX2                !
 ! A5    A(3,1,5)              107.9256         estimate D2E/DX2                !
 ! A6    A(4,1,5)              107.4735         estimate D2E/DX2                !
 ! A7    A(1,2,6)              111.1414         estimate D2E/DX2                !
 ! A8    A(1,2,7)              107.9394         estimate D2E/DX2                !
 ! A9    A(1,2,17)             112.7669         estimate D2E/DX2                !
 ! A10   A(6,2,7)              107.9322         estimate D2E/DX2                !
 ! A11   A(6,2,17)             109.301          estimate D2E/DX2                !
 ! A12   A(7,2,17)             107.5742         estimate D2E/DX2                !
 ! A13   A(2,6,8)              113.4341         estimate D2E/DX2                !
 ! A14   A(2,6,69)             109.0544         estimate D2E/DX2                !
 ! A15   A(2,6,70)             108.0992         estimate D2E/DX2                !
 ! A16   A(8,6,69)             109.6129         estimate D2E/DX2                !
 ! A17   A(8,6,70)             110.0688         estimate D2E/DX2                !
 ! A18   A(69,6,70)            106.3135         estimate D2E/DX2                !
 ! A19   A(6,8,9)              109.3187         estimate D2E/DX2                !
 ! A20   A(6,8,10)             109.7883         estimate D2E/DX2                !
 ! A21   A(6,8,11)             114.8336         estimate D2E/DX2                !
 ! A22   A(9,8,10)             105.5621         estimate D2E/DX2                !
 ! A23   A(9,8,11)             108.5888         estimate D2E/DX2                !
 ! A24   A(10,8,11)            108.3356         estimate D2E/DX2                !
 ! A25   A(8,11,12)            110.1428         estimate D2E/DX2                !
 ! A26   A(8,11,27)            112.502          estimate D2E/DX2                !
 ! A27   A(8,11,73)            108.2394         estimate D2E/DX2                !
 ! A28   A(12,11,27)           110.8258         estimate D2E/DX2                !
 ! A29   A(12,11,73)           107.6489         estimate D2E/DX2                !
 ! A30   A(27,11,73)           107.2878         estimate D2E/DX2                !
 ! A31   A(11,12,13)           114.3368         estimate D2E/DX2                !
 ! A32   A(11,12,71)           108.5825         estimate D2E/DX2                !
 ! A33   A(11,12,72)           108.1326         estimate D2E/DX2                !
 ! A34   A(13,12,71)           109.6694         estimate D2E/DX2                !
 ! A35   A(13,12,72)           109.4191         estimate D2E/DX2                !
 ! A36   A(71,12,72)           106.3911         estimate D2E/DX2                !
 ! A37   A(12,13,14)           110.8846         estimate D2E/DX2                !
 ! A38   A(12,13,15)           111.4242         estimate D2E/DX2                !
 ! A39   A(12,13,16)           110.9995         estimate D2E/DX2                !
 ! A40   A(14,13,15)           107.8411         estimate D2E/DX2                !
 ! A41   A(14,13,16)           107.8009         estimate D2E/DX2                !
 ! A42   A(15,13,16)           107.7322         estimate D2E/DX2                !
 ! A43   A(2,17,18)            120.796          estimate D2E/DX2                !
 ! A44   A(2,17,19)            121.0321         estimate D2E/DX2                !
 ! A45   A(18,17,19)           117.937          estimate D2E/DX2                !
 ! A46   A(17,18,20)           121.3537         estimate D2E/DX2                !
 ! A47   A(17,18,21)           120.073          estimate D2E/DX2                !
 ! A48   A(20,18,21)           118.5021         estimate D2E/DX2                !
 ! A49   A(17,19,22)           120.9922         estimate D2E/DX2                !
 ! A50   A(17,19,23)           119.4564         estimate D2E/DX2                !
 ! A51   A(22,19,23)           119.5073         estimate D2E/DX2                !
 ! A52   A(18,20,24)           120.4458         estimate D2E/DX2                !
 ! A53   A(18,20,25)           119.3938         estimate D2E/DX2                !
 ! A54   A(24,20,25)           120.1084         estimate D2E/DX2                !
 ! A55   A(19,22,24)           120.7055         estimate D2E/DX2                !
 ! A56   A(19,22,26)           119.4929         estimate D2E/DX2                !
 ! A57   A(24,22,26)           119.76           estimate D2E/DX2                !
 ! A58   A(20,24,22)           118.5121         estimate D2E/DX2                !
 ! A59   A(20,24,40)           120.1924         estimate D2E/DX2                !
 ! A60   A(22,24,40)           121.0134         estimate D2E/DX2                !
 ! A61   A(11,27,28)           120.6542         estimate D2E/DX2                !
 ! A62   A(11,27,29)           121.5045         estimate D2E/DX2                !
 ! A63   A(28,27,29)           117.8358         estimate D2E/DX2                !
 ! A64   A(27,28,30)           121.2201         estimate D2E/DX2                !
 ! A65   A(27,28,31)           119.3221         estimate D2E/DX2                !
 ! A66   A(30,28,31)           119.4568         estimate D2E/DX2                !
 ! A67   A(27,29,32)           121.1484         estimate D2E/DX2                !
 ! A68   A(27,29,33)           120.203          estimate D2E/DX2                !
 ! A69   A(32,29,33)           118.6116         estimate D2E/DX2                !
 ! A70   A(28,30,34)           120.63           estimate D2E/DX2                !
 ! A71   A(28,30,35)           119.4707         estimate D2E/DX2                !
 ! A72   A(34,30,35)           119.8844         estimate D2E/DX2                !
 ! A73   A(29,32,34)           120.7483         estimate D2E/DX2                !
 ! A74   A(29,32,36)           120.7157         estimate D2E/DX2                !
 ! A75   A(34,32,36)           118.4674         estimate D2E/DX2                !
 ! A76   A(30,34,32)           118.388          estimate D2E/DX2                !
 ! A77   A(30,34,37)           121.9181         estimate D2E/DX2                !
 ! A78   A(32,34,37)           119.6187         estimate D2E/DX2                !
 ! A79   A(34,37,38)           110.2617         estimate D2E/DX2                !
 ! A80   A(34,37,39)           112.0684         estimate D2E/DX2                !
 ! A81   A(34,37,67)           114.5891         estimate D2E/DX2                !
 ! A82   A(38,37,39)           108.1892         estimate D2E/DX2                !
 ! A83   A(38,37,67)           105.6688         estimate D2E/DX2                !
 ! A84   A(39,37,67)           105.6511         estimate D2E/DX2                !
 ! A85   A(24,40,41)           109.6469         estimate D2E/DX2                !
 ! A86   A(24,40,42)           111.3052         estimate D2E/DX2                !
 ! A87   A(24,40,68)           116.0331         estimate D2E/DX2                !
 ! A88   A(41,40,42)           108.5557         estimate D2E/DX2                !
 ! A89   A(41,40,68)           105.2312         estimate D2E/DX2                !
 ! A90   A(42,40,68)           105.6694         estimate D2E/DX2                !
 ! A91   A(40,41,77)           164.8234         estimate D2E/DX2                !
 ! A92   A(44,43,45)           109.513          estimate D2E/DX2                !
 ! A93   A(44,43,46)           111.7153         estimate D2E/DX2                !
 ! A94   A(44,43,67)           108.236          estimate D2E/DX2                !
 ! A95   A(45,43,46)           109.5928         estimate D2E/DX2                !
 ! A96   A(45,43,67)           108.9856         estimate D2E/DX2                !
 ! A97   A(46,43,67)           108.7457         estimate D2E/DX2                !
 ! A98   A(48,47,49)           110.4515         estimate D2E/DX2                !
 ! A99   A(48,47,50)           110.3528         estimate D2E/DX2                !
 ! A100  A(48,47,67)           109.2649         estimate D2E/DX2                !
 ! A101  A(49,47,50)           108.793          estimate D2E/DX2                !
 ! A102  A(49,47,67)           108.8027         estimate D2E/DX2                !
 ! A103  A(50,47,67)           109.1446         estimate D2E/DX2                !
 ! A104  A(52,51,53)           110.1517         estimate D2E/DX2                !
 ! A105  A(52,51,54)           110.0453         estimate D2E/DX2                !
 ! A106  A(52,51,67)           108.9333         estimate D2E/DX2                !
 ! A107  A(53,51,54)           109.8595         estimate D2E/DX2                !
 ! A108  A(53,51,67)           109.2038         estimate D2E/DX2                !
 ! A109  A(54,51,67)           108.6155         estimate D2E/DX2                !
 ! A110  A(56,55,57)           110.2097         estimate D2E/DX2                !
 ! A111  A(56,55,58)           110.6938         estimate D2E/DX2                !
 ! A112  A(56,55,68)           109.0368         estimate D2E/DX2                !
 ! A113  A(57,55,58)           109.6234         estimate D2E/DX2                !
 ! A114  A(57,55,68)           108.4083         estimate D2E/DX2                !
 ! A115  A(58,55,68)           108.8203         estimate D2E/DX2                !
 ! A116  A(60,59,61)           109.8619         estimate D2E/DX2                !
 ! A117  A(60,59,62)           109.9481         estimate D2E/DX2                !
 ! A118  A(60,59,68)           108.9263         estimate D2E/DX2                !
 ! A119  A(61,59,62)           110.1945         estimate D2E/DX2                !
 ! A120  A(61,59,68)           109.0671         estimate D2E/DX2                !
 ! A121  A(62,59,68)           108.8132         estimate D2E/DX2                !
 ! A122  A(64,63,65)           111.2985         estimate D2E/DX2                !
 ! A123  A(64,63,66)           110.4164         estimate D2E/DX2                !
 ! A124  A(64,63,68)           109.0866         estimate D2E/DX2                !
 ! A125  A(65,63,66)           108.9959         estimate D2E/DX2                !
 ! A126  A(65,63,68)           108.8181         estimate D2E/DX2                !
 ! A127  A(66,63,68)           108.156          estimate D2E/DX2                !
 ! A128  A(37,67,43)           107.8892         estimate D2E/DX2                !
 ! A129  A(37,67,47)           111.5452         estimate D2E/DX2                !
 ! A130  A(37,67,51)           110.6167         estimate D2E/DX2                !
 ! A131  A(43,67,47)           108.5405         estimate D2E/DX2                !
 ! A132  A(43,67,51)           109.2123         estimate D2E/DX2                !
 ! A133  A(47,67,51)           108.9833         estimate D2E/DX2                !
 ! A134  A(40,68,55)           106.7681         estimate D2E/DX2                !
 ! A135  A(40,68,59)           110.8593         estimate D2E/DX2                !
 ! A136  A(40,68,63)           110.9307         estimate D2E/DX2                !
 ! A137  A(55,68,59)           109.9276         estimate D2E/DX2                !
 ! A138  A(55,68,63)           108.5026         estimate D2E/DX2                !
 ! A139  A(59,68,63)           109.7796         estimate D2E/DX2                !
 ! A140  A(75,74,76)           119.7475         estimate D2E/DX2                !
 ! A141  A(75,74,77)           119.578          estimate D2E/DX2                !
 ! A142  A(76,74,77)           120.6718         estimate D2E/DX2                !
 ! A143  A(74,75,79)           108.0713         estimate D2E/DX2                !
 ! A144  A(74,75,86)           106.2792         estimate D2E/DX2                !
 ! A145  A(74,75,95)           117.6256         estimate D2E/DX2                !
 ! A146  A(79,75,86)            93.6927         estimate D2E/DX2                !
 ! A147  A(79,75,95)           125.3278         estimate D2E/DX2                !
 ! A148  A(86,75,95)           100.4204         estimate D2E/DX2                !
 ! A149  A(74,76,88)           118.3831         estimate D2E/DX2                !
 ! A150  A(74,76,91)           116.8109         estimate D2E/DX2                !
 ! A151  A(74,76,98)            94.8929         estimate D2E/DX2                !
 ! A152  A(88,76,91)           122.512          estimate D2E/DX2                !
 ! A153  A(88,76,98)            93.8732         estimate D2E/DX2                !
 ! A154  A(91,76,98)            96.3661         estimate D2E/DX2                !
 ! A155  A(41,77,74)           107.246          estimate D2E/DX2                !
 ! A156  A(41,77,83)           106.1744         estimate D2E/DX2                !
 ! A157  A(74,77,83)           113.5403         estimate D2E/DX2                !
 ! A158  A(79,78,80)           101.5515         estimate D2E/DX2                !
 ! A159  A(79,78,97)            94.6592         estimate D2E/DX2                !
 ! A160  A(80,78,97)           100.2789         estimate D2E/DX2                !
 ! A161  A(82,81,83)           104.5589         estimate D2E/DX2                !
 ! A162  A(85,84,86)           102.586          estimate D2E/DX2                !
 ! A163  A(85,84,101)          147.0175         estimate D2E/DX2                !
 ! A164  A(86,84,101)           91.6892         estimate D2E/DX2                !
 ! A165  A(88,87,89)           105.8147         estimate D2E/DX2                !
 ! A166  A(91,90,92)           102.1199         estimate D2E/DX2                !
 ! A167  A(94,93,95)           105.1312         estimate D2E/DX2                !
 ! A168  A(94,93,100)           98.7622         estimate D2E/DX2                !
 ! A169  A(95,93,100)           92.6827         estimate D2E/DX2                !
 ! A170  A(97,96,98)           101.0702         estimate D2E/DX2                !
 ! A171  A(78,97,96)           156.1521         estimate D2E/DX2                !
 ! A172  A(76,98,96)           153.2419         estimate D2E/DX2                !
 ! A173  A(100,99,101)         104.4737         estimate D2E/DX2                !
 ! A174  A(93,100,99)          162.2283         estimate D2E/DX2                !
 ! A175  A(84,101,99)          154.0296         estimate D2E/DX2                !
 ! A176  L(75,79,78,55,-1)     176.5986         estimate D2E/DX2                !
 ! A177  L(77,83,81,1,-1)      174.8262         estimate D2E/DX2                !
 ! A178  L(75,86,84,13,-1)     176.0496         estimate D2E/DX2                !
 ! A179  L(76,88,87,44,-1)     181.0113         estimate D2E/DX2                !
 ! A180  L(76,91,90,1,-1)      174.0498         estimate D2E/DX2                !
 ! A181  L(75,95,93,1,-1)      184.9651         estimate D2E/DX2                !
 ! A182  L(75,79,78,55,-2)     167.1408         estimate D2E/DX2                !
 ! A183  L(77,83,81,1,-2)      183.4607         estimate D2E/DX2                !
 ! A184  L(75,86,84,13,-2)     183.8745         estimate D2E/DX2                !
 ! A185  L(76,88,87,44,-2)     177.1515         estimate D2E/DX2                !
 ! A186  L(76,91,90,1,-2)      175.9418         estimate D2E/DX2                !
 ! A187  L(75,95,93,1,-2)      182.5218         estimate D2E/DX2                !
 ! D1    D(3,1,2,6)            177.7626         estimate D2E/DX2                !
 ! D2    D(3,1,2,7)            -64.0619         estimate D2E/DX2                !
 ! D3    D(3,1,2,17)            54.6274         estimate D2E/DX2                !
 ! D4    D(4,1,2,6)            -62.0448         estimate D2E/DX2                !
 ! D5    D(4,1,2,7)             56.1306         estimate D2E/DX2                !
 ! D6    D(4,1,2,17)           174.8199         estimate D2E/DX2                !
 ! D7    D(5,1,2,6)             57.2461         estimate D2E/DX2                !
 ! D8    D(5,1,2,7)            175.4215         estimate D2E/DX2                !
 ! D9    D(5,1,2,17)           -65.8892         estimate D2E/DX2                !
 ! D10   D(1,2,6,8)            167.7357         estimate D2E/DX2                !
 ! D11   D(1,2,6,69)            45.2728         estimate D2E/DX2                !
 ! D12   D(1,2,6,70)           -69.9114         estimate D2E/DX2                !
 ! D13   D(7,2,6,8)             49.5559         estimate D2E/DX2                !
 ! D14   D(7,2,6,69)           -72.907          estimate D2E/DX2                !
 ! D15   D(7,2,6,70)           171.9088         estimate D2E/DX2                !
 ! D16   D(17,2,6,8)           -67.1615         estimate D2E/DX2                !
 ! D17   D(17,2,6,69)          170.3756         estimate D2E/DX2                !
 ! D18   D(17,2,6,70)           55.1914         estimate D2E/DX2                !
 ! D19   D(1,2,17,18)           53.3516         estimate D2E/DX2                !
 ! D20   D(1,2,17,19)         -132.3311         estimate D2E/DX2                !
 ! D21   D(6,2,17,18)          -70.8023         estimate D2E/DX2                !
 ! D22   D(6,2,17,19)          103.515          estimate D2E/DX2                !
 ! D23   D(7,2,17,18)          172.2537         estimate D2E/DX2                !
 ! D24   D(7,2,17,19)          -13.429          estimate D2E/DX2                !
 ! D25   D(2,6,8,9)            -84.2016         estimate D2E/DX2                !
 ! D26   D(2,6,8,10)            31.1555         estimate D2E/DX2                !
 ! D27   D(2,6,8,11)           153.4921         estimate D2E/DX2                !
 ! D28   D(69,6,8,9)            37.9514         estimate D2E/DX2                !
 ! D29   D(69,6,8,10)          153.3086         estimate D2E/DX2                !
 ! D30   D(69,6,8,11)          -84.3548         estimate D2E/DX2                !
 ! D31   D(70,6,8,9)           154.5445         estimate D2E/DX2                !
 ! D32   D(70,6,8,10)          -90.0983         estimate D2E/DX2                !
 ! D33   D(70,6,8,11)           32.2382         estimate D2E/DX2                !
 ! D34   D(6,8,11,12)          175.2813         estimate D2E/DX2                !
 ! D35   D(6,8,11,27)          -60.5354         estimate D2E/DX2                !
 ! D36   D(6,8,11,73)           57.8365         estimate D2E/DX2                !
 ! D37   D(9,8,11,12)           52.5817         estimate D2E/DX2                !
 ! D38   D(9,8,11,27)          176.765          estimate D2E/DX2                !
 ! D39   D(9,8,11,73)          -64.8631         estimate D2E/DX2                !
 ! D40   D(10,8,11,12)         -61.601          estimate D2E/DX2                !
 ! D41   D(10,8,11,27)          62.5823         estimate D2E/DX2                !
 ! D42   D(10,8,11,73)        -179.0458         estimate D2E/DX2                !
 ! D43   D(8,11,12,13)        -175.3603         estimate D2E/DX2                !
 ! D44   D(8,11,12,71)          61.8337         estimate D2E/DX2                !
 ! D45   D(8,11,12,72)         -53.2138         estimate D2E/DX2                !
 ! D46   D(27,11,12,13)         59.4935         estimate D2E/DX2                !
 ! D47   D(27,11,12,71)        -63.3125         estimate D2E/DX2                !
 ! D48   D(27,11,12,72)       -178.36           estimate D2E/DX2                !
 ! D49   D(73,11,12,13)        -57.5502         estimate D2E/DX2                !
 ! D50   D(73,11,12,71)        179.6438         estimate D2E/DX2                !
 ! D51   D(73,11,12,72)         64.5963         estimate D2E/DX2                !
 ! D52   D(8,11,27,28)         133.5933         estimate D2E/DX2                !
 ! D53   D(8,11,27,29)         -47.2775         estimate D2E/DX2                !
 ! D54   D(12,11,27,28)       -102.6017         estimate D2E/DX2                !
 ! D55   D(12,11,27,29)         76.5275         estimate D2E/DX2                !
 ! D56   D(73,11,27,28)         14.6634         estimate D2E/DX2                !
 ! D57   D(73,11,27,29)       -166.2073         estimate D2E/DX2                !
 ! D58   D(11,12,13,14)        177.0712         estimate D2E/DX2                !
 ! D59   D(11,12,13,15)        -62.7977         estimate D2E/DX2                !
 ! D60   D(11,12,13,16)         57.273          estimate D2E/DX2                !
 ! D61   D(71,12,13,14)        -60.7142         estimate D2E/DX2                !
 ! D62   D(71,12,13,15)         59.4169         estimate D2E/DX2                !
 ! D63   D(71,12,13,16)        179.4876         estimate D2E/DX2                !
 ! D64   D(72,12,13,14)         55.6303         estimate D2E/DX2                !
 ! D65   D(72,12,13,15)        175.7614         estimate D2E/DX2                !
 ! D66   D(72,12,13,16)        -64.1679         estimate D2E/DX2                !
 ! D67   D(2,17,18,20)         172.1904         estimate D2E/DX2                !
 ! D68   D(2,17,18,21)          -4.693          estimate D2E/DX2                !
 ! D69   D(19,17,18,20)         -2.2985         estimate D2E/DX2                !
 ! D70   D(19,17,18,21)       -179.1819         estimate D2E/DX2                !
 ! D71   D(2,17,19,22)        -172.0473         estimate D2E/DX2                !
 ! D72   D(2,17,19,23)           5.5242         estimate D2E/DX2                !
 ! D73   D(18,17,19,22)          2.428          estimate D2E/DX2                !
 ! D74   D(18,17,19,23)        179.9994         estimate D2E/DX2                !
 ! D75   D(17,18,20,24)          0.483          estimate D2E/DX2                !
 ! D76   D(17,18,20,25)       -176.8965         estimate D2E/DX2                !
 ! D77   D(21,18,20,24)        177.414          estimate D2E/DX2                !
 ! D78   D(21,18,20,25)          0.0345         estimate D2E/DX2                !
 ! D79   D(17,19,22,24)         -0.7554         estimate D2E/DX2                !
 ! D80   D(17,19,22,26)        176.8927         estimate D2E/DX2                !
 ! D81   D(23,19,22,24)       -178.3256         estimate D2E/DX2                !
 ! D82   D(23,19,22,26)         -0.6776         estimate D2E/DX2                !
 ! D83   D(18,20,24,22)          1.2383         estimate D2E/DX2                !
 ! D84   D(18,20,24,40)       -172.724          estimate D2E/DX2                !
 ! D85   D(25,20,24,22)        178.5991         estimate D2E/DX2                !
 ! D86   D(25,20,24,40)          4.6368         estimate D2E/DX2                !
 ! D87   D(19,22,24,20)         -1.1043         estimate D2E/DX2                !
 ! D88   D(19,22,24,40)        172.8064         estimate D2E/DX2                !
 ! D89   D(26,22,24,20)       -178.7461         estimate D2E/DX2                !
 ! D90   D(26,22,24,40)         -4.8354         estimate D2E/DX2                !
 ! D91   D(20,24,40,41)         31.3428         estimate D2E/DX2                !
 ! D92   D(20,24,40,42)        151.4694         estimate D2E/DX2                !
 ! D93   D(20,24,40,68)        -87.6587         estimate D2E/DX2                !
 ! D94   D(22,24,40,41)       -142.4663         estimate D2E/DX2                !
 ! D95   D(22,24,40,42)        -22.3397         estimate D2E/DX2                !
 ! D96   D(22,24,40,68)         98.5322         estimate D2E/DX2                !
 ! D97   D(11,27,28,30)        178.1967         estimate D2E/DX2                !
 ! D98   D(11,27,28,31)         -2.1662         estimate D2E/DX2                !
 ! D99   D(29,27,28,30)         -0.9638         estimate D2E/DX2                !
 ! D100  D(29,27,28,31)        178.6733         estimate D2E/DX2                !
 ! D101  D(11,27,29,32)       -178.9289         estimate D2E/DX2                !
 ! D102  D(11,27,29,33)          3.3124         estimate D2E/DX2                !
 ! D103  D(28,27,29,32)          0.2241         estimate D2E/DX2                !
 ! D104  D(28,27,29,33)       -177.5347         estimate D2E/DX2                !
 ! D105  D(27,28,30,34)          0.2158         estimate D2E/DX2                !
 ! D106  D(27,28,30,35)        178.8143         estimate D2E/DX2                !
 ! D107  D(31,28,30,34)       -179.4209         estimate D2E/DX2                !
 ! D108  D(31,28,30,35)         -0.8223         estimate D2E/DX2                !
 ! D109  D(27,29,32,34)          1.2749         estimate D2E/DX2                !
 ! D110  D(27,29,32,36)       -175.6673         estimate D2E/DX2                !
 ! D111  D(33,29,32,34)        179.0685         estimate D2E/DX2                !
 ! D112  D(33,29,32,36)          2.1263         estimate D2E/DX2                !
 ! D113  D(28,30,34,32)          1.2647         estimate D2E/DX2                !
 ! D114  D(28,30,34,37)        178.0975         estimate D2E/DX2                !
 ! D115  D(35,30,34,32)       -177.3281         estimate D2E/DX2                !
 ! D116  D(35,30,34,37)         -0.4953         estimate D2E/DX2                !
 ! D117  D(29,32,34,30)         -2.0007         estimate D2E/DX2                !
 ! D118  D(29,32,34,37)       -178.9084         estimate D2E/DX2                !
 ! D119  D(36,32,34,30)        175.009          estimate D2E/DX2                !
 ! D120  D(36,32,34,37)         -1.8987         estimate D2E/DX2                !
 ! D121  D(30,34,37,38)       -148.4024         estimate D2E/DX2                !
 ! D122  D(30,34,37,39)        -27.8245         estimate D2E/DX2                !
 ! D123  D(30,34,37,67)         92.5506         estimate D2E/DX2                !
 ! D124  D(32,34,37,38)         28.3924         estimate D2E/DX2                !
 ! D125  D(32,34,37,39)        148.9704         estimate D2E/DX2                !
 ! D126  D(32,34,37,67)        -90.6545         estimate D2E/DX2                !
 ! D127  D(34,37,67,43)        173.9641         estimate D2E/DX2                !
 ! D128  D(34,37,67,47)         54.8421         estimate D2E/DX2                !
 ! D129  D(34,37,67,51)        -66.6374         estimate D2E/DX2                !
 ! D130  D(38,37,67,43)         52.3698         estimate D2E/DX2                !
 ! D131  D(38,37,67,47)        -66.7522         estimate D2E/DX2                !
 ! D132  D(38,37,67,51)        171.7683         estimate D2E/DX2                !
 ! D133  D(39,37,67,43)        -62.1668         estimate D2E/DX2                !
 ! D134  D(39,37,67,47)        178.7113         estimate D2E/DX2                !
 ! D135  D(39,37,67,51)         57.2318         estimate D2E/DX2                !
 ! D136  D(24,40,41,77)        -33.8903         estimate D2E/DX2                !
 ! D137  D(42,40,41,77)       -155.6791         estimate D2E/DX2                !
 ! D138  D(68,40,41,77)         91.5738         estimate D2E/DX2                !
 ! D139  D(24,40,68,55)       -178.9256         estimate D2E/DX2                !
 ! D140  D(24,40,68,59)        -59.2064         estimate D2E/DX2                !
 ! D141  D(24,40,68,63)         63.0335         estimate D2E/DX2                !
 ! D142  D(41,40,68,55)         59.6882         estimate D2E/DX2                !
 ! D143  D(41,40,68,59)        179.4074         estimate D2E/DX2                !
 ! D144  D(41,40,68,63)        -58.3527         estimate D2E/DX2                !
 ! D145  D(42,40,68,55)        -55.0781         estimate D2E/DX2                !
 ! D146  D(42,40,68,59)         64.6411         estimate D2E/DX2                !
 ! D147  D(42,40,68,63)       -173.119          estimate D2E/DX2                !
 ! D148  D(40,41,77,74)       -150.6302         estimate D2E/DX2                !
 ! D149  D(40,41,77,83)        -28.9304         estimate D2E/DX2                !
 ! D150  D(44,43,67,37)        175.0826         estimate D2E/DX2                !
 ! D151  D(44,43,67,47)        -63.9018         estimate D2E/DX2                !
 ! D152  D(44,43,67,51)         54.7971         estimate D2E/DX2                !
 ! D153  D(45,43,67,37)        -65.8872         estimate D2E/DX2                !
 ! D154  D(45,43,67,47)         55.1284         estimate D2E/DX2                !
 ! D155  D(45,43,67,51)        173.8274         estimate D2E/DX2                !
 ! D156  D(46,43,67,37)         53.5356         estimate D2E/DX2                !
 ! D157  D(46,43,67,47)        174.5512         estimate D2E/DX2                !
 ! D158  D(46,43,67,51)        -66.7498         estimate D2E/DX2                !
 ! D159  D(48,47,67,37)        -67.9951         estimate D2E/DX2                !
 ! D160  D(48,47,67,43)        173.2708         estimate D2E/DX2                !
 ! D161  D(48,47,67,51)         54.4274         estimate D2E/DX2                !
 ! D162  D(49,47,67,37)         52.6693         estimate D2E/DX2                !
 ! D163  D(49,47,67,43)        -66.0648         estimate D2E/DX2                !
 ! D164  D(49,47,67,51)        175.0918         estimate D2E/DX2                !
 ! D165  D(50,47,67,37)        171.2524         estimate D2E/DX2                !
 ! D166  D(50,47,67,43)         52.5182         estimate D2E/DX2                !
 ! D167  D(50,47,67,51)        -66.3252         estimate D2E/DX2                !
 ! D168  D(52,51,67,37)        -60.306          estimate D2E/DX2                !
 ! D169  D(52,51,67,43)         58.2914         estimate D2E/DX2                !
 ! D170  D(52,51,67,47)        176.7141         estimate D2E/DX2                !
 ! D171  D(53,51,67,37)         60.0355         estimate D2E/DX2                !
 ! D172  D(53,51,67,43)        178.6329         estimate D2E/DX2                !
 ! D173  D(53,51,67,47)        -62.9444         estimate D2E/DX2                !
 ! D174  D(54,51,67,37)        179.8318         estimate D2E/DX2                !
 ! D175  D(54,51,67,43)        -61.5708         estimate D2E/DX2                !
 ! D176  D(54,51,67,47)         56.8518         estimate D2E/DX2                !
 ! D177  D(56,55,68,40)       -175.9657         estimate D2E/DX2                !
 ! D178  D(56,55,68,59)         63.7156         estimate D2E/DX2                !
 ! D179  D(56,55,68,63)        -56.3439         estimate D2E/DX2                !
 ! D180  D(57,55,68,40)        -55.9664         estimate D2E/DX2                !
 ! D181  D(57,55,68,59)       -176.2851         estimate D2E/DX2                !
 ! D182  D(57,55,68,63)         63.6554         estimate D2E/DX2                !
 ! D183  D(58,55,68,40)         63.2015         estimate D2E/DX2                !
 ! D184  D(58,55,68,59)        -57.1172         estimate D2E/DX2                !
 ! D185  D(58,55,68,63)       -177.1766         estimate D2E/DX2                !
 ! D186  D(60,59,68,40)        -56.6036         estimate D2E/DX2                !
 ! D187  D(60,59,68,55)         61.2065         estimate D2E/DX2                !
 ! D188  D(60,59,68,63)       -179.512          estimate D2E/DX2                !
 ! D189  D(61,59,68,40)         63.2996         estimate D2E/DX2                !
 ! D190  D(61,59,68,55)       -178.8903         estimate D2E/DX2                !
 ! D191  D(61,59,68,63)        -59.6088         estimate D2E/DX2                !
 ! D192  D(62,59,68,40)       -176.4609         estimate D2E/DX2                !
 ! D193  D(62,59,68,55)        -58.6508         estimate D2E/DX2                !
 ! D194  D(62,59,68,63)         60.6307         estimate D2E/DX2                !
 ! D195  D(64,63,68,40)        -60.0766         estimate D2E/DX2                !
 ! D196  D(64,63,68,55)       -177.0588         estimate D2E/DX2                !
 ! D197  D(64,63,68,59)         62.7896         estimate D2E/DX2                !
 ! D198  D(65,63,68,40)         61.5229         estimate D2E/DX2                !
 ! D199  D(65,63,68,55)        -55.4593         estimate D2E/DX2                !
 ! D200  D(65,63,68,59)       -175.6109         estimate D2E/DX2                !
 ! D201  D(66,63,68,40)        179.7946         estimate D2E/DX2                !
 ! D202  D(66,63,68,55)         62.8124         estimate D2E/DX2                !
 ! D203  D(66,63,68,59)        -57.3392         estimate D2E/DX2                !
 ! D204  D(76,74,75,79)        -50.8916         estimate D2E/DX2                !
 ! D205  D(76,74,75,86)         48.6558         estimate D2E/DX2                !
 ! D206  D(76,74,75,95)        160.0944         estimate D2E/DX2                !
 ! D207  D(77,74,75,79)        129.7053         estimate D2E/DX2                !
 ! D208  D(77,74,75,86)       -130.7473         estimate D2E/DX2                !
 ! D209  D(77,74,75,95)        -19.3087         estimate D2E/DX2                !
 ! D210  D(75,74,76,88)          1.6435         estimate D2E/DX2                !
 ! D211  D(75,74,76,91)       -161.6043         estimate D2E/DX2                !
 ! D212  D(75,74,76,98)         98.7268         estimate D2E/DX2                !
 ! D213  D(77,74,76,88)       -178.96           estimate D2E/DX2                !
 ! D214  D(77,74,76,91)         17.7921         estimate D2E/DX2                !
 ! D215  D(77,74,76,98)        -81.8767         estimate D2E/DX2                !
 ! D216  D(75,74,77,41)        -31.746          estimate D2E/DX2                !
 ! D217  D(75,74,77,83)       -148.7075         estimate D2E/DX2                !
 ! D218  D(76,74,77,41)        148.8565         estimate D2E/DX2                !
 ! D219  D(76,74,77,83)         31.895          estimate D2E/DX2                !
 ! D220  D(74,75,78,80)         75.8318         estimate D2E/DX2                !
 ! D221  D(74,75,78,97)        -23.8589         estimate D2E/DX2                !
 ! D222  D(86,75,78,80)        -32.6668         estimate D2E/DX2                !
 ! D223  D(86,75,78,97)       -132.3575         estimate D2E/DX2                !
 ! D224  D(95,75,78,80)       -141.256          estimate D2E/DX2                !
 ! D225  D(95,75,78,97)        119.0534         estimate D2E/DX2                !
 ! D226  D(74,75,84,85)        -79.7886         estimate D2E/DX2                !
 ! D227  D(74,75,84,101)       129.3093         estimate D2E/DX2                !
 ! D228  D(79,75,84,85)         30.498          estimate D2E/DX2                !
 ! D229  D(79,75,84,101)      -120.4041         estimate D2E/DX2                !
 ! D230  D(95,75,84,85)        157.8769         estimate D2E/DX2                !
 ! D231  D(95,75,84,101)         6.9748         estimate D2E/DX2                !
 ! D232  D(74,75,93,94)        -18.0318         estimate D2E/DX2                !
 ! D233  D(74,75,93,100)      -116.9485         estimate D2E/DX2                !
 ! D234  D(79,75,93,94)       -163.4653         estimate D2E/DX2                !
 ! D235  D(79,75,93,100)        97.618          estimate D2E/DX2                !
 ! D236  D(86,75,93,94)         95.9075         estimate D2E/DX2                !
 ! D237  D(86,75,93,100)        -3.0092         estimate D2E/DX2                !
 ! D238  D(74,76,87,89)        174.3554         estimate D2E/DX2                !
 ! D239  D(91,76,87,89)        -23.2544         estimate D2E/DX2                !
 ! D240  D(98,76,87,89)         76.9006         estimate D2E/DX2                !
 ! D241  D(74,76,90,92)        -55.6726         estimate D2E/DX2                !
 ! D242  D(88,76,90,92)        142.9641         estimate D2E/DX2                !
 ! D243  D(98,76,90,92)         43.1036         estimate D2E/DX2                !
 ! D244  D(74,76,98,96)        -32.34           estimate D2E/DX2                !
 ! D245  D(88,76,98,96)         86.6064         estimate D2E/DX2                !
 ! D246  D(91,76,98,96)       -150.0539         estimate D2E/DX2                !
 ! D247  D(41,77,81,82)        -86.4365         estimate D2E/DX2                !
 ! D248  D(74,77,81,82)         30.6858         estimate D2E/DX2                !
 ! D249  D(79,78,97,96)         22.5785         estimate D2E/DX2                !
 ! D250  D(80,78,97,96)        -80.07           estimate D2E/DX2                !
 ! D251  D(85,84,101,99)      -168.192          estimate D2E/DX2                !
 ! D252  D(86,84,101,99)       -51.7113         estimate D2E/DX2                !
 ! D253  D(94,93,100,99)       -48.3906         estimate D2E/DX2                !
 ! D254  D(95,93,100,99)        57.3704         estimate D2E/DX2                !
 ! D255  D(98,96,97,78)         25.5707         estimate D2E/DX2                !
 ! D256  D(97,96,98,76)        -47.2007         estimate D2E/DX2                !
 ! D257  D(101,99,100,93)      -74.022          estimate D2E/DX2                !
 ! D258  D(100,99,101,84)       61.175          estimate D2E/DX2                !
 --------------------------------------------------------------------------------
 Trust Radius=3.00D-01 FncErr=1.00D-07 GrdErr=1.00D-06 EigMax=2.50D+02 EigMin=1.00D-04
 Number of steps in this run=    559 maximum allowed number of steps=    606.
 GradGradGradGradGradGradGradGradGradGradGradGradGradGradGradGradGradGrad

 Leave Link  103 at Sun Mar 31 11:52:23 2024, MaxMem=  1610612736 cpu:               1.4 elap:               0.1
 (Enter /packages/apps/gaussian/g16/g16/l202.exe)
 Stoichiometry    C28H60N2O11
 Framework group  C1[X(C28H60N2O11)]
 Deg. of freedom   297
 Full point group                 C1      NOp   1
 Largest Abelian subgroup         C1      NOp   1
 Largest concise Abelian subgroup C1      NOp   1
                         Standard orientation:                         
 ---------------------------------------------------------------------
 Center     Atomic      Atomic             Coordinates (Angstroms)
 Number     Number       Type             X           Y           Z
 ---------------------------------------------------------------------
      1          6           0        5.414175    2.713479   -2.190546
      2          6           0        5.098615    2.078059   -0.836123
      3          1           0        5.205926    3.783337   -2.183607
      4          1           0        6.466408    2.571464   -2.439105
      5          1           0        4.824929    2.261891   -2.989903
      6          6           0        5.341312    0.556346   -0.865960
      7          1           0        5.775088    2.512533   -0.094320
      8          6           0        5.332253   -0.088671    0.521637
      9          1           0        6.322091    0.011549    0.973301
     10          1           0        4.653638    0.458231    1.178997
     11          6           0        4.933780   -1.569211    0.540984
     12          6           0        5.073748   -2.136904    1.963803
     13          6           0        4.807941   -3.633376    2.071749
     14          1           0        4.972323   -3.984681    3.090178
     15          1           0        3.781504   -3.876415    1.796163
     16          1           0        5.471597   -4.197234    1.412905
     17          6           0        3.680438    2.350148   -0.376915
     18          6           0        2.595363    2.055838   -1.199778
     19          6           0        3.417167    2.789328    0.917040
     20          6           0        1.295424    2.148373   -0.737046
     21          1           0        2.760403    1.699113   -2.207753
     22          6           0        2.115825    2.881869    1.389180
     23          1           0        4.242303    3.025050    1.577667
     24          6           0        1.038725    2.551676    0.572786
     25          1           0        0.478307    1.863774   -1.387656
     26          1           0        1.940914    3.178284    2.416722
     27          6           0        3.534707   -1.800840    0.003232
     28          6           0        3.286569   -2.817009   -0.914405
     29          6           0        2.455920   -1.022208    0.419832
     30          6           0        2.005156   -3.063087   -1.385856
     31          1           0        4.110539   -3.422512   -1.270830
     32          6           0        1.178784   -1.254111   -0.059025
     33          1           0        2.611786   -0.196029    1.101995
     34          6           0        0.931293   -2.292812   -0.953789
     35          1           0        1.847095   -3.849119   -2.114724
     36          1           0        0.357856   -0.601741    0.215061
     37          6           0       -0.459068   -2.506247   -1.476038
     38          1           0       -1.003519   -1.565169   -1.493064
     39          1           0       -0.458728   -2.916602   -2.483417
     40          6           0       -0.355971    2.494626    1.119596
     41          1           0       -0.898312    1.668230    0.656343
     42          1           0       -0.352248    2.345399    2.197350
     43          6           0       -2.695215   -3.446853   -1.207142
     44          1           0       -3.284180   -4.188506   -0.674906
     45          1           0       -3.129545   -2.462419   -1.056717
     46          1           0       -2.642365   -3.663151   -2.270657
     47          6           0       -1.373108   -3.030438    0.785314
     48          1           0       -0.394314   -3.148151    1.238291
     49          1           0       -1.687235   -1.993429    0.826115
     50          1           0       -2.104902   -3.637741    1.305723
     51          6           0       -0.766469   -4.837246   -0.712073
     52          1           0       -0.774800   -5.169538   -1.747345
     53          1           0        0.248666   -4.840860   -0.326123
     54          1           0       -1.393698   -5.486809   -0.107296
     55          6           0       -2.538624    3.457022    1.524392
     56          1           0       -3.209983    4.284519    1.312714
     57          1           0       -2.939896    2.535072    1.116686
     58          1           0       -2.389265    3.347959    2.595265
     59          6           0       -0.597153    4.929480    1.475822
     60          1           0       -0.433683    4.753363    2.536188
     61          1           0        0.351648    5.121357    0.983011
     62          1           0       -1.268442    5.773574    1.339218
     63          6           0       -1.440189    3.940169   -0.581138
     64          1           0       -0.481311    4.082843   -1.068662
     65          1           0       -1.965434    3.079961   -0.987401
     66          1           0       -2.062043    4.823769   -0.701511
     67          7           0       -1.309149   -3.458330   -0.644788
     68          7           0       -1.218056    3.723286    0.878186
     69          1           0        6.296989    0.357090   -1.356815
     70          1           0        4.572057    0.102075   -1.495783
     71          1           0        4.392283   -1.593301    2.624605
     72          1           0        6.084623   -1.920968    2.318192
     73          1           0        5.626019   -2.118941   -0.105404
     74          6           0       -2.796194    0.050627   -0.264126
     75          8           0       -3.143025    0.135145    0.978929
     76          8           0       -3.664682   -0.290574   -1.146060
     77          8           0       -1.590158    0.296504   -0.599497
     78          8           0       -5.380170    1.788049    0.925871
     79          1           0       -4.640420    1.170926    1.079215
     80          1           0       -6.062039    1.193061    0.592060
     81          8           0       -1.280783    1.413998   -3.021451
     82          1           0       -2.070397    1.936879   -3.169618
     83          1           0       -1.440337    0.963056   -2.159792
     84          8           0       -4.436272   -2.236050    1.507990
     85          1           0       -5.319713   -2.108630    1.149060
     86          1           0       -4.017048   -1.366457    1.355659
     87          8           0       -6.182351   -0.722464   -0.300476
     88          1           0       -5.264242   -0.579132   -0.637799
     89          1           0       -6.722554   -0.878358   -1.073553
     90          8           0       -2.565128   -1.215985   -3.561211
     91          1           0       -3.016317   -0.890132   -2.761511
     92          1           0       -2.007204   -0.467798   -3.797571
     93          8           0       -1.249565   -0.028056    2.865627
     94          1           0       -0.483945   -0.421131    2.446761
     95          1           0       -1.915835    0.074732    2.141478
     96          8           0       -4.124388    2.467791   -1.573072
     97          1           0       -4.661620    2.481350   -0.765105
     98          1           0       -4.034028    1.514615   -1.720386
     99          8           0       -2.486347   -2.608516    3.608478
    100          1           0       -2.122100   -1.715534    3.558201
    101          1           0       -3.321138   -2.556180    3.125944
 ---------------------------------------------------------------------
 Rotational constants (GHZ):           0.0968245           0.0625665           0.0487341
 Leave Link  202 at Sun Mar 31 11:52:23 2024, MaxMem=  1610612736 cpu:               2.2 elap:               0.1
 (Enter /packages/apps/gaussian/g16/g16/l301.exe)
 Standard basis: 6-311+G(2d,2p) (5D, 7F)
 Ernie: Thresh=  0.10000D-02 Tol=  0.10000D-05 Strict=F.
 There are  1729 symmetry adapted cartesian basis functions of A   symmetry.
 There are  1647 symmetry adapted basis functions of A   symmetry.
  1647 basis functions,  2382 primitive gaussians,  1729 cartesian basis functions
   165 alpha electrons      165 beta electrons
       nuclear repulsion energy      5960.8476362930 Hartrees.
 IExCor= 4639 DFT=T Ex+Corr=wB97XD ExCW=0 ScaHFX=  1.000000
 ScaDFX=  1.000000  1.000000  1.000000  1.000000 ScalE2=  1.000000  1.000000
 IRadAn=      5 IRanWt=     -1 IRanGd=            0 ICorTp=0 IEmpDi=121
 HFx  wShort=  0.000000 wLong=  0.200000 cFull=  0.222036 cShort=  0.000000 cLong=  0.777964
 DFx  wShort=  0.000000 wLong=  0.200000 cFull=  0.000000 cShort=  0.000000 cLong=  1.000000
 NAtoms=  101 NActive=  101 NUniq=  101 SFac= 1.00D+00 NAtFMM=   60 NAOKFM=T Big=T
 Integral buffers will be    131072 words long.
 Raffenetti 2 integral format.
 Two-electron integral symmetry is turned on.
 R6Disp:  Grimme-D2 Dispersion energy=       -0.1222914923 Hartrees.
 Nuclear repulsion after empirical dispersion term =     5960.7253448007 Hartrees.
 Leave Link  301 at Sun Mar 31 11:52:23 2024, MaxMem=  1610612736 cpu:               1.6 elap:               0.1
 (Enter /packages/apps/gaussian/g16/g16/l302.exe)
 NPDir=0 NMtPBC=     1 NCelOv=     1 NCel=       1 NClECP=     1 NCelD=      1
         NCelK=      1 NCelE2=     1 NClLst=     1 CellRange=     0.0.
 One-electron integrals computed using PRISM.
 One-electron integral symmetry used in STVInt
 NBasis=  1647 RedAO= T EigKep=  1.13D-06  NBF=  1647
 NBsUse=  1637 1.00D-06 EigRej=  8.79D-07 NBFU=  1637
 Precomputing XC quadrature grid using
 IXCGrd= 4 IRadAn=           5 IRanWt=          -1 IRanGd=           0 AccXCQ= 0.00D+00.
 Generated NRdTot=       0 NPtTot=           0 NUsed=           0 NTot=          32
 NSgBfM=  1675  1669  1669  1675  1675 MxSgAt=   101 MxSgA2=   101.
 Leave Link  302 at Sun Mar 31 11:52:29 2024, MaxMem=  1610612736 cpu:             227.2 elap:               6.0
 (Enter /packages/apps/gaussian/g16/g16/l303.exe)
 DipDrv:  MaxL=1.
 Leave Link  303 at Sun Mar 31 11:52:30 2024, MaxMem=  1610612736 cpu:              11.8 elap:               0.5
 (Enter /packages/apps/gaussian/g16/g16/l401.exe)
 ExpMin= 4.38D-02 ExpMax= 8.59D+03 ExpMxC= 1.30D+03 IAcc=3 IRadAn=         5 AccDes= 0.00D+00
 Harris functional with IExCor= 4639 and IRadAn=       5 diagonalized for initial guess.
 HarFok:  IExCor= 4639 AccDes= 0.00D+00 IRadAn=         5 IDoV= 1 UseB2=F ITyADJ=14
[...]
 14,0.00004364,0.00003737,0.00002205,-0.00005010,-0.00003083,-0.0000572
 7,-0.00003748,0.00001146,-0.00001814,0.00009264,0.00001947,0.00006897,
 -0.00005327,0.00009370,-0.00004565,0.00010794,0.00001082,-0.00015092,-
 0.00005629,-0.00007764,-0.00005606,-0.00003429,-0.00000756,-0.00003331
 ,-0.00001679,0.00000968,0.00000402,-0.00000389,-0.00000407,0.00002983,
 0.00000260,-0.00001154,0.00003586,0.00015233,0.00000397,0.00000017,-0.
 00001363,0.00003594,0.00001812,0.00003624,-0.00001139,0.00001833,-0.00
 003127,-0.00026289,-0.00013627,0.00056948,0.00009360,0.00016633,-0.000
 24451,0.00002199,-0.00002365,-0.00000391,-0.00000628,0.00001183,0.0000
 0272,0.00000933,0.00000257,-0.00001100,-0.00000451,-0.00000918,-0.0000
 0231,0.00000874,-0.00001124,-0.00000614,0.00017573,0.00056008,0.001950
 72,-0.00161521,-0.00073967,-0.00242932,-0.00071624,-0.00067041,-0.0010
 6088,-0.00004801,-0.00026291,-0.00073452,-0.00035278,-0.00003518,-0.00
 009734,0.00035214,-0.00006378,0.00009148,0.00008486,0.00014287,0.00002
 913,-0.00002514,-0.00005000,-0.00022571,0.00001750,0.00002022,0.000046
 26,-0.00001103,-0.00002628,0.00022830,0.00113168,-0.00099515,0.0016547
 4,-0.00017465,-0.00000639,0.00009353,0.00054622,0.00156459,-0.00041579
 ,-0.00009645,-0.00039692,0.00020480,0.00035750,0.00024656,-0.00012698,
 0.00000211,0.00001670,0.00000108,0.00002072,-0.00018695,-0.00006462,-0
 .00004677,0.00013918,0.00014229,0.00002163,0.00006907,0.00003108,0.002
 55248,0.00066786,-0.00424757,-0.00038998,0.00171294,-0.00031786,0.0026
 6301,-0.00193886,0.00465386,-0.00012658,-0.00002264,-0.00011461,0.0000
 7255,0.00001185,0.00004744,0.00004543,0.00000237,0.00004850,-0.1810452
 0,-0.43783559,0.01923165,0.17201482,0.43730061,-0.00000791,0.00000647,
 -0.00000264,0.00001929,0.00001348,-0.00000096,0.00000506,-0.00000288,-
 0.00000093,-0.00001079,0.00000194,0.00000618,0.00000297,-0.00000113,-0
 .00000477,0.00000130,-0.00000389,0.00000769,-0.00000883,-0.00000662,-0
 .00000513,-0.00000723,0.00001202,-0.00001003,-0.00002436,-0.00000922,-
 0.00000114,0.00001026,-0.00000019,0.00001425,0.00004228,0.00000688,-0.
 00000230,-0.00002834,-0.00001419,0.00002348,0.00001738,0.00000028,-0.0
 0000096,-0.00001816,0.00001211,-0.00002194,-0.00000553,-0.00001226,0.0
 0001974,0.00000503,-0.00000058,-0.00000084,0.00001127,-0.00001337,0.00
 000063,-0.00002307,-0.00000442,-0.00001428,-0.00001148,0.00000955,0.00
 000748,-0.00001768,-0.00002231,-0.00000225,0.00000051,0.00000837,0.000
 00095,-0.00000349,0.00000056,0.00005377,-0.00001792,-0.00000036,-0.000
 00141,0.00004755,-0.00007011,0.00001686,0.00001319,0.00001649,-0.00001
 569,0.00001522,0.00000424,0.00000116,0.00004242,0.00000833,0.00001668,
 -0.00004430,0.,-0.00001222,-0.00003320,0.00004924,0.00003859,0.0000163
 0,-0.00001782,-0.00000982,-0.00001639,0.00000738,0.00000811,0.00005973
 ,-0.00009335,0.00004984,0.00002138,-0.00000872,-0.00000114,-0.00004877
 ,-0.00001834,-0.00000077,0.00000390,0.00000727,0.00000200,0.00003128,0
 .00007128,-0.00006853,0.00015415,0.00010667,-0.00009567,-0.00000674,-0
 .00002562,-0.00004612,-0.00002870,0.00000594,0.00002360,-0.00003309,-0
 .00000248,-0.00004996,0.00003047,0.00011278,-0.00008466,0.00006695,0.0
 0016835,0.00006369,-0.00017808,-0.00002776,0.00002381,-0.00000596,0.00
 000790,-0.00000251,-0.00001542,-0.00001317,-0.00002783,0.00003338,0.00
 001853,0.00002697,0.00017230,-0.00105528,-0.00055913,0.00013081,-0.000
 09506,-0.00002626,0.00003211,0.00028988,-0.00090033,-0.00012169,-0.000
 11261,0.00035521,0.00005526,-0.00014536,0.00020833,-0.00002756,0.00007
 906,0.00002442,0.00000698,-0.00000828,-0.00000505,0.00000383,-0.000010
 30,-0.00000345,-0.00001158,0.00000044,0.00004260,-0.00000592,-0.000032
 69,0.00001637,-0.00002301,0.00008616,-0.00001792,-0.00003286,0.0000284
 5,0.00002554,0.00005081,0.00003386,0.00005203,-0.00000716,0.00001225,0
 .00000526,-0.00000637,0.00000227,-0.00000466,0.00000102,-0.00001801,0.
 00000159,0.00002829,-0.00001601,-0.00002824,-0.00000437,0.00000656,-0.
 00000262,-0.00000478,0.00002504,-0.00000544,0.00000775,-0.00001290,0.0
 0000966,-0.00002258,0.00054997,0.00007427,-0.00003925,-0.00008852,0.00
 003274,-0.00001320,0.00000581,0.00000157,0.00000059,0.00000174,-0.0000
 1692,0.00001287,-0.00000752,0.00001008,-0.00001920,0.00000392,-0.00001
 568,-0.00001514,0.00000466,-0.00000376,0.00016598,-0.00020893,-0.00165
 060,0.00055073,-0.00064692,0.00149559,0.00043176,0.00020085,0.00069826
 ,-0.00025901,-0.00020011,0.00049537,0.00027549,-0.00014201,-0.00011203
 ,-0.00035450,0.00022459,0.00008364,-0.00005491,0.00000535,0.00004021,-
 0.00003486,-0.00011463,0.00017184,-0.00000369,0.00002552,-0.00002367,0
 .00003966,0.00012969,-0.00023606,0.00031420,0.00057634,-0.00069699,-0.
 00002155,0.00021657,-0.00002651,-0.00110926,-0.00009059,-0.00052353,0.
 00022160,0.00002542,-0.00005087,-0.00029297,-0.00004692,0.00003495,-0.
 00003333,-0.00000194,0.00000198,-0.00000110,0.00000389,0.00015646,0.00
 002179,-0.00002405,-0.00014999,0.00000058,0.00001029,-0.00004007,-0.00
 265141,-0.00533968,-0.00227574,0.00167411,0.00134802,-0.00059891,0.000
 21153,0.00364284,-0.00235066,0.00009045,-0.00013430,0.00002365,-0.0000
 5413,0.00003270,0.00001659,-0.00006542,0.00013520,-0.00005452,-0.00148
 729,0.04380208,-0.01992181,0.01262864,-0.01984561,0.02489407,-0.000000
 49,0.00000265,0.00000368,-0.00000314,-0.00001187,-0.00000268,-0.000001
 42,0.00000760,-0.00000127,0.00000403,-0.00000221,-0.00000150,-0.000001
 45,-0.00000301,0.00000005,-0.00000287,0.00000077,0.00000478,0.00000007
 ,0.00000265,0.00000121,-0.00000413,-0.00000498,0.00000269,0.00000954,0
 .00000601,0.00000110,-0.00000038,-0.00000872,-0.00000361,-0.00002165,-
 0.00001069,0.00000846,-0.00000250,0.00001376,0.00000876,-0.00001889,-0
 .00000296,-0.00000995,-0.00000877,0.00000528,0.00000127,0.00000892,0.0
 0000985,0.00001574,0.00001314,-0.00000078,-0.00001051,-0.00000480,0.00
 000611,-0.00000364,-0.00000306,0.00000681,-0.00000900,-0.00001353,0.00
 000957,-0.00001170,0.00001956,0.00001786,0.00001352,0.00000412,-0.0000
 0982,0.00000411,-0.00000417,0.00001985,-0.00000215,-0.00000089,-0.0000
 0802,0.00000237,-0.00001681,0.00003485,-0.00003090,0.00002198,-0.00000
 642,0.00001182,-0.00000245,-0.00002224,-0.00000226,-0.00002923,0.00000
 002,-0.00001299,0.00001479,0.00000554,0.00000620,0.00000118,0.00000246
 ,-0.00004400,-0.00002150,0.00002551,0.00000005,0.00000806,-0.00000757,
 0.00000179,-0.00001287,0.00005403,-0.00008045,-0.00001784,-0.00002007,
 0.00001662,0.00001229,0.00003989,-0.00001049,-0.00000436,-0.00001054,0
 .00000355,0.00004863,-0.00008800,0.00007734,-0.00019700,-0.00024147,-0
 .00007100,0.00007656,-0.00007704,0.00002181,0.00009304,0.00005177,-0.0
 0007953,0.00005061,-0.00008466,0.00005316,0.00005616,0.00003516,0.0001
 0091,-0.00003454,-0.00009990,-0.00002070,0.00050235,-0.00001956,0.0001
 8256,0.00009813,-0.00015418,-0.00004811,0.00018362,0.00001175,-0.00017
 824,-0.00014951,0.00002262,-0.00001230,-0.00071684,-0.00007138,0.00045
 768,-0.00011183,-0.00000948,0.00004594,-0.00004606,-0.00038240,0.00042
 730,0.00002319,0.00094107,0.00129693,-0.00011891,0.00010740,-0.0001796
 2,0.00004557,-0.00006672,-0.00005944,-0.00005221,0.00001900,0.00002606
 ,0.00004249,0.00004636,0.00006218,0.00005208,0.00001471,0.00001146,0.0
 0000468,0.00002412,-0.00000892,0.00006269,0.00002451,0.00002473,0.0000
 0598,-0.00003524,-0.00001222,-0.00002043,0.00000540,0.00000812,0.00000
 589,-0.00001099,-0.00000747,0.00000007,-0.00001269,0.00000226,-0.00000
 274,0.00001208,-0.00000155,-0.00001010,0.00001443,0.00004198,-0.000002
 86,-0.00001319,-0.00000047,0.00004789,0.00001361,0.00001087,0.00000011
 ,0.00001504,-0.00000795,0.00040234,0.00003154,-0.00058022,-0.00004059,
 0.00003974,-0.00006840,0.00000798,0.00000152,-0.00000401,-0.00000240,-
 0.00000439,0.00000843,-0.00000314,-0.00001546,-0.00000754,0.00001700,0
 .00000260,0.00000475,0.00000984,-0.00000206,-0.00000716,0.00144107,0.0
 0031222,0.00002198,-0.00170820,-0.00094103,-0.00018550,-0.00091690,-0.
 00045243,-0.00008185,-0.00105003,0.00009626,0.00007726,-0.00029239,-0.
 00028819,0.00010137,0.00028801,0.00015319,-0.00006904,0.00003258,0.000
 26387,-0.00002441,-0.00008333,-0.00001767,-0.00001591,0.00003194,0.000
 01338,-0.00000578,0.00005911,0.00000330,-0.00000562,-0.00185827,-0.001
 33225,0.00265472,-0.00221544,-0.00009495,0.00038459,0.00337201,0.00231
 823,-0.00032402,0.00017480,-0.00070181,0.00066309,0.00051099,0.0004533
 4,-0.00045313,-0.00003961,-0.00005558,0.00000214,-0.00018033,0.0000621
 6,0.00003960,0.00013041,-0.00005381,-0.00011461,0.00004321,-0.00000565
 ,0.00000886,0.00065158,0.00189263,-0.00085050,-0.00026424,-0.00023532,
 0.00012038,0.00080324,-0.00094008,0.00119981,-0.00016697,-0.00009594,0
 .00006477,0.00010467,0.00007869,-0.00009355,0.00006398,0.00006128,-0.0
 0003351,-0.37890857,-0.00147376,-0.20644302,-0.01717691,0.00432310,-0.
 01040686,0.39690535,0.00000707,-0.00000477,0.00000118,-0.00001130,-0.0
 0000083,0.00000116,-0.00000224,-0.00000264,0.00000191,0.00000536,0.000
 00051,-0.00000315,-0.00000274,0.00000143,0.00000092,0.00000713,0.00000
 486,-0.00000347,0.00000298,-0.00000050,0.00000005,-0.00000646,0.000005
 19,0.00000054,-0.00000049,-0.00000323,0.00000054,0.00000119,0.00000203
 ,-0.00000410,0.00000942,0.00000120,-0.00000337,-0.00001136,0.00000238,
 0.00000441,0.00000403,-0.00000211,0.00000085,-0.00000254,0.00000118,0.
 00000074,-0.00000355,0.00000237,0.00000313,0.00000370,-0.00000104,-0.0
 0000300,-0.00000589,0.00000522,0.00000605,0.00001233,-0.00000314,0.000
 00650,0.00001172,-0.00000740,-0.00001037,0.00000477,0.00000161,-0.0000
 0199,0.00000094,0.00000108,-0.00000592,-0.00000153,-0.00000332,-0.0000
 0819,0.00000455,0.00000176,0.00000215,-0.00000802,0.00000620,0.0000068
 2,-0.00001280,0.00000119,0.00000641,-0.00000527,-0.00000113,-0.0000049
 4,-0.00000477,0.00000986,0.00000895,-0.00000670,-0.00001826,-0.0000140
 0,0.00001304,-0.00000498,-0.00000216,0.00001128,-0.00002659,0.00000017
 ,-0.00000031,0.00000152,-0.00000261,-0.00003263,0.00001962,0.00001576,
 -0.00001104,-0.00000539,-0.00000449,0.00001820,-0.00001966,0.00003545,
 0.00000778,-0.00000383,-0.00001345,-0.00003194,0.00002492,0.00000075,0
 .00013022,0.00016329,0.00001234,-0.00005144,0.00008027,0.00002598,-0.0
 0004093,-0.00004016,0.00002562,-0.00003865,0.00002921,0.00001912,-0.00
 003188,-0.00004197,-0.00000411,-0.00001212,-0.00001838,-0.00000239,-0.
 00000271,0.00011449,-0.00009667,-0.00002405,-0.00002551,-0.00005661,-0
 .00007179,0.00007539,0.00003695,0.00000122,-0.00002081,0.00000991,0.00
 042838,0.00055904,-0.00029537,-0.00010869,-0.00010081,0.00010878,-0.00
 022256,0.00000147,0.00025469,0.00078780,-0.00031338,-0.00116269,0.0000
 6800,0.00004223,-0.00004449,-0.00001022,-0.00001207,0.00002371,0.00000
 755,-0.00000388,-0.00000386,0.00000603,-0.00004575,-0.00003207,-0.0000
 3859,-0.00002054,0.00002981,0.00000786,0.00001052,-0.00000784,-0.00001
 338,-0.00004966,0.00002566,-0.00001152,-0.00002661,-0.00000643,0.00000
 016,-0.00002142,-0.00001342,-0.00000692,-0.00000199,0.00000011,0.00000
 475,0.00000747,-0.00000161,-0.00000171,-0.00000190,0.00000141,0.000008
 86,-0.00000650,0.00001655,0.00000356,0.00000604,-0.00000480,-0.0000133
 9,-0.00000781,0.00000670,-0.00000256,-0.00000219,0.00000160,-0.0002436
 4,-0.00034810,0.00017970,0.00003805,0.00001837,-0.00002023,0.00000453,
 -0.00000557,-0.00000084,-0.00000137,0.00000366,-0.00000124,0.00000307,
 -0.00000428,-0.00000145,-0.00000214,-0.00000046,-0.00000316,0.00000042
 ,-0.00000217,-0.00000289,-0.00062503,0.00026805,0.00154967,0.00036094,
 0.00031572,-0.00148999,-0.00010323,-0.00021130,-0.00060710,0.00065976,
 -0.00004209,-0.00045533,-0.00009055,0.00014453,-0.00019113,0.00009205,
 -0.00016108,0.00017283,0.00005567,-0.00000359,0.00006679,0.00003036,0.
 00001361,-0.00011120,-0.00000693,-0.00000174,0.00002398,-0.00003469,-0
 .00003956,0.00013681,-0.00189992,-0.00330130,-0.00140514,0.00048470,-0
 .00090669,-0.00069933,0.00140242,-0.00088760,0.00438441,-0.00014489,-0
 .00000141,-0.00011527,0.00006113,-0.00000683,0.00007169,0.00002486,0.0
 0003767,-0.00000563,0.00005869,-0.00010525,-0.00007211,-0.00006515,0.0
 0008751,0.00013364,-0.00000448,0.00002501,0.00001636,0.00081448,-0.000
 97525,0.00073251,0.00011354,0.00024698,-0.00012067,-0.00083968,-0.0005
 8863,0.00029374,0.00001818,0.00005506,-0.00009862,-0.00001792,-0.00004
 099,0.00008560,0.00000679,-0.00004485,0.00004820,0.04461919,-0.0499298
 5,0.03560633,-0.04195437,0.00071995,-0.02339847,-0.00353004,0.05535908
 ,0.00000146,0.00000290,0.00000188,0.00000346,0.00000335,-0.00000325,0.
 00000212,-0.00000111,0.00000026,-0.00000370,0.00000137,0.00000104,-0.0
 0000037,-0.00000192,-0.00000382,0.00000889,0.00000185,0.00000506,-0.00
 000524,-0.00000443,-0.00000426,-0.00001507,0.00001357,-0.00000609,-0.0
 0001583,-0.00000966,-0.00000174,0.00000742,-0.00000293,0.00000567,0.00
 003498,0.00000256,-0.00000434,-0.00003426,-0.00000814,0.00002882,0.000
 00599,-0.00000140,-0.00000922,-0.00001880,0.00000967,-0.00001802,-0.00
 000330,-0.00000384,0.00002758,0.00001268,-0.00000144,-0.00000369,0.000
 00507,-0.00000216,0.00000304,-0.00001195,-0.00001500,-0.00001990,-0.00
 001178,0.00000172,-0.00000995,0.00002757,0.00000410,0.00002625,0.00000
 990,0.00000408,-0.00000416,-0.00000880,0.00001676,0.00001795,-0.000008
 48,-0.00000205,-0.00000003,-0.00000807,0.00000421,-0.00002712,0.000030
 06,0.00002055,0.00000293,0.00000017,-0.00001728,-0.00000922,-0.0000121
 5,0.00002976,0.00002664,-0.00004644,-0.00003720,-0.00004253,-0.0000146
 5,0.00003736,-0.00000726,0.00002244,-0.00006173,-0.00002734,-0.0000163
 2,0.00000228,0.00000330,-0.00005981,0.00001575,-0.00002637,-0.00002412
 ,-0.00003436,0.00000116,0.00003962,0.00001635,0.00006273,0.00001816,-0
 .00001110,-0.00001110,0.00007685,0.00000402,0.00007344,0.00023919,0.00
 025307,-0.00003810,0.00001343,-0.00001148,-0.00001759,-0.00004296,-0.0
 0003774,0.00002645,0.00000087,-0.00004598,0.00003725,0.00010515,0.0001
 4673,0.00014556,-0.00003020,-0.00007629,-0.00002003,0.00019162,-0.0000
 1111,0.00005150,0.00003137,-0.00023555,-0.00012503,0.00012340,0.000120
 87,-0.00025019,-0.00013862,0.00004195,0.00005762,0.00052026,0.00011878
 ,-0.00037030,-0.00047698,0.00006416,0.00029320,0.00056503,0.00035124,-
 0.00022416,0.00130260,-0.00125036,-0.00072525,0.00004338,-0.00015066,0
 .00005351,-0.00000407,0.00003195,0.00001549,-0.00003192,0.00002065,0.0
 0000744,0.00003433,-0.00005327,0.00001969,0.00003073,0.00000167,0.0000
 6274,-0.00000036,0.00000184,-0.00000208,0.00004415,0.00009905,0.000042
 01,-0.00002460,-0.00003732,-0.00001075,0.00000400,0.00002285,0.0000314
 9,-0.00000493,-0.00000394,-0.00000621,-0.00000316,-0.00000458,-0.00000
 244,0.00000040,0.00000147,0.00000332,0.00000966,0.00001550,0.00004769,
 -0.00000544,-0.00000070,-0.00000574,0.00003892,0.00004366,0.00001460,0
 .00000391,0.00000208,-0.00001013,-0.00053129,-0.00006764,-0.00007201,-
 0.00003152,-0.00000681,-0.00009414,-0.00000419,0.00000051,-0.00000081,
 -0.00000224,0.00000275,-0.00001132,0.00000747,-0.00001330,0.00000009,-
 0.00000926,0.00000482,-0.00001635,-0.00000726,0.00000083,-0.00000627,0
 .00137206,0.00032957,-0.00089666,-0.00133661,-0.00187910,0.00042588,-0
 .00052909,-0.00052548,0.00024005,-0.00108125,-0.00024885,0.00029752,0.
 00002860,-0.00037593,-0.00018930,-0.00010703,0.00035031,0.00012878,-0.
 00002950,0.00028937,0.00011409,-0.00011061,-0.00017403,0.00010649,0.00
 002325,0.00005064,-0.00001827,0.00008449,0.00014870,-0.00018784,0.0043
 9540,0.00053770,-0.00154628,-0.00187538,-0.00116385,0.00163918,0.00041
 010,0.00384827,-0.00227136,0.00061821,-0.00085327,0.00070363,0.0001774
 6,0.00048314,-0.00042622,-0.00009623,-0.00010247,0.00004826,-0.0001198
 0,-0.00005017,0.00021512,0.00009903,0.00000691,-0.00021556,0.00004297,
 0.00004127,-0.00003370,0.00006034,0.00161711,-0.00155317,-0.00011390,-
 0.00024783,0.00032244,0.00102750,0.00004748,0.00124212,-0.00003584,-0.
 00025005,0.00002336,0.00001965,0.00009478,-0.00001092,-0.00001922,0.00
 022515,-0.00007131,-0.21874228,0.01037711,-0.13269173,0.00150063,0.001
 69569,0.00140821,0.21238846,-0.01358828,0.13424811\\-0.00000041,-0.000
 00089,-0.00000057,0.00000057,-0.00000004,0.00000203,0.00000013,-0.0000
 0054,-0.00000055,0.00000004,-0.00000053,-0.00000091,0.00000011,-0.0000
 0007,-0.00000048,-0.00000153,-0.00000115,-0.00000034,0.00000051,-0.000
 00085,-0.00000115,0.00000046,-0.00000073,-0.00000041,0.00000035,-0.000
 00092,-0.00000045,-0.00000044,-0.00000105,-0.00000150,-0.00000020,0.00
 000126,-0.00000168,-0.00000069,-0.00000054,-0.00000036,0.00000080,-0.0
 0000074,0.00000006,-0.00000001,-0.00000026,-0.00000125,-0.00000077,-0.
 00000045,-0.00000074,-0.00000012,-0.00000047,-0.00000099,0.00000097,-0
 .00000015,0.00000118,0.00000013,-0.00000321,-0.00000042,-0.00000028,-0
 .00000095,-0.00000108,-0.00000124,0.00000066,-0.00000030,0.00000004,-0
 .00000005,-0.00000097,0.00000104,-0.00000157,-0.00000082,0.00000054,-0
 .00000020,-0.00000052,-0.00000085,0.00000074,-0.00000182,-0.00000277,-
 0.00000259,-0.00000037,0.00000043,0.00000020,-0.00000023,0.00000207,0.
 00000034,0.00000016,-0.00000020,-0.00000070,-0.00000087,0.00000048,-0.
 00000039,-0.00000123,0.00000018,-0.00000010,0.00000018,-0.00000048,-0.
 00000043,-0.00000099,0.00000357,0.00000176,-0.00000087,0.00000102,0.00
 000261,-0.00000100,0.00000065,0.00000084,-0.00000062,-0.00000033,0.000
 00033,-0.00000079,-0.00000140,-0.00000022,-0.00000296,-0.00000233,0.00
 000485,0.00000227,0.00000773,-0.00000702,-0.00000084,-0.00000102,0.000
 00168,0.00000029,0.00000370,0.00000633,0.00000494,-0.00000194,-0.00000
 672,-0.00000271,0.00000047,0.00000188,-0.00000169,0.00000109,-0.000003
 87,-0.00000139,-0.00000090,-0.00000039,0.00000007,-0.00000051,0.000004
 32,-0.00000052,-0.00000029,-0.00000008,-0.00000044,0.00000260,0.000002
 36,0.00000299,-0.00000155,0.00000162,0.00000021,-0.00000070,0.00000298
 ,0.00000156,-0.00000259,0.00000029,-0.00000076,0.00000005,0.00000072,-
 0.00000022,-0.00000075,-0.00000025,-0.00000055,-0.00000027,0.00000009,
 -0.00000016,-0.00000041,-0.00000056,0.00000027,0.00000069,-0.00000100,
 0.00000146,0.00000062,0.00000033,0.00000021,-0.00000308,-0.00000283,-0
 .00000257,0.00000072,0.00000051,0.00000104,-0.00000011,0.00000158,0.00
 000027,0.00000101,-0.00000026,0.00000035,0.00000107,0.00000003,0.00000
 013,0.00000069,-0.00000025,0.00000062,-0.00000162,0.00000243,0.0000019
 7,-0.00000016,-0.00000114,-0.00000108,-0.00000034,-0.00000299,0.000001
 46,0.00000009,0.00000166,0.00000004,-0.00000221,-0.00000096,0.00000255
 ,-0.00000052,0.00000203,0.00000102,-0.00000004,-0.00000082,-0.00000101
 ,-0.00000107,-0.00000059,-0.00000108,0.00000018,-0.00000027,-0.0000003
 0,0.00000038,-0.00000075,-0.00000076,0.00000017,-0.00000080,-0.0000018
 0,0.00000490,0.00000382,0.00000146,-0.00000004,-0.00000564,-0.00000230
 ,0.00000222,-0.00000218,0.00000478,-0.00000538,0.00000241,-0.00000128,
 -0.00000151,0.00000584,0.00000048,0.00000109,-0.00000064,0.00000077,0.
 00000500,-0.00000056,0.00000247,0.00000614,0.00000144,0.00000052,-0.00
 000722,-0.00000524,-0.00000512,-0.00000049,-0.00000350,0.00000308,-0.0
 0000045,-0.00000112,-0.00000285,-0.00000002,0.00000133,0.00000181,-0.0
 0000230,0.00000423,0.00000346,-0.00000398,-0.00000463,-0.00000197,0.00
 000265,0.00000563,0.00000486,-0.00000180,-0.00000022,-0.00000025,0.000
 00978,0.00000710,-0.00000421,-0.00000350,0.00000222,0.00000315,-0.0000
 1143,-0.00000243,0.00000342,-0.00000411,-0.00000060,0.00000343,0.00000
 476,-0.00000620,-0.00000180,-0.00000343,0.00000082,0.00000112,0.000005
 79,0.00000120,0.00000656,0.00000252,-0.00000094,0.00000079,-0.00000192
 ,0.00000498,-0.00000446,-0.00000024,-0.00000066,-0.00000394,0.00000023
 ,0.00000059,0.00000045,0.00000148,-0.00000022,0.00000334\\\@


 Life may have no meaning.  Or even worse, it may have a
 meaning of which I disapprove.
                                 -- Ashleigh Brilliant
 Job cpu time:      50 days 20 hours 52 minutes 31.4 seconds.
 Elapsed time:       1 days  7 hours 15 minutes 25.6 seconds.
 File lengths (MBytes):  RWF=  62886 Int=      0 D2E=      0 Chk=    215 Scr=      1
 Normal termination of Gaussian 16 at Mon Apr  1 21:57:09 2024.
