 Entering Gaussian System, Link 0=g16
 Input=dry-v2-ofreq.gjf
 Output=dry-v2-ofreq.log
 Initial command:
 /packages/apps/gaussian/g16/g16/l1.exe "/scratch/mdturne9/2-5-methyl/ofreq/Gau-1488376.inp" -scrdir="/scratch/mdturne9/2-5-methyl/ofreq/"
 Entering Link 1 = /packages/apps/gaussian/g16/g16/l1.exe PID=   1488378.
  
 Copyright (c) 1988,1990,1992,1993,1995,1998,2003,2009,2016,
            Gaussian, Inc.  All Rights Reserved.
  
 This is part of the Gaussian(R) 16 program.  It is based on
 the Gaussian(R) 09 system (copyright 2009, Gaussian, Inc.),
 the Gaussian(R) 03 system (copyright 2003, Gaussian, Inc.),
 the Gaussian(R) 98 system (copyright 1998, Gaussian, Inc.),
 the Gaussian(R) 94 system (copyright 1995, Gaussian, Inc.),
 the Gaussian 92(TM) system (copyright 1992, Gaussian, Inc.),
 the Gaussian 90(TM) system (copyright 1990, Gaussian, Inc.),
 the Gaussian 88(TM) system (copyright 1988, Gaussian, Inc.),
 the Gaussian 86(TM) system (copyright 1986, Carnegie Mellon
 University), and the Gaussian 82(TM) system (copyright 1983,
 Carnegie Mellon University). Gaussian is a federally registered
 trademark of Gaussian, Inc.
  
 This software contains proprietary and confidential information,
 including trade secrets, belonging to Gaussian, Inc.
  
 This software is provided under written license and may be
 used, copied, transmitted, or stored only in accord with that
 written license.
  
 The following legend is applicable only to US Government
 contracts under FAR:
  
                    RESTRICTED RIGHTS LEGEND
  
 Use, reproduction and disclosure by the US Government is
 subject to restrictions as set forth in subparagraphs (a)
 and (c) of the Commercial Computer Software - Restricted
 Rights clause in FAR 52.227-19.
  
 Gaussian, Inc.
 340 Quinnipiac St., Bldg. 40, Wallingford CT 06492
  
  
 ---------------------------------------------------------------
 Warning -- This program may not be used in any manner that
 competes with the business of Gaussian, Inc. or will provide
 assistance to any competitor of Gaussian, Inc.  The licensee
 of this program is prohibited from giving any competitor of
 Gaussian, Inc. access to this program.  By using this program,
 the user acknowledges that Gaussian, Inc. is engaged in the
 business of creating and licensing software in the field of
 computational chemistry and represents and warrants to the
 licensee that it is not a competitor of Gaussian, Inc. and that
 it will not use this program in any manner prohibited above.
 ---------------------------------------------------------------
  

 Cite this work as:
 Gaussian 16, Revision A.03,
 M. J. Frisch, G. W. Trucks, H. B. Schlegel, G. E. Scuseria, 
 M. A. Robb, J. R. Cheeseman, G. Scalmani, V. Barone, 
 G. A. Petersson, H. Nakatsuji, X. Li, M. Caricato, A. V. Marenich, 
 J. Bloino, B. G. Janesko, R. Gomperts, B. Mennucci, H. P. Hratchian, 
 J. V. Ortiz, A. F. Izmaylov, J. L. Sonnenberg, D. Williams-Young, 
 F. Ding, F. Lipparini, F. Egidi, J. Goings, B. Peng, A. Petrone, 
 T. Henderson, D. Ranasinghe, V. G. Zakrzewski, J. Gao, N. Rega, 
 G. Zheng, W. Liang, M. Hada, M. Ehara, K. Toyota, R. Fukuda, 
 J. Hasegawa, M. Ishida, T. Nakajima, Y. Honda, O. Kitao, H. Nakai, 
 T. Vreven, K. Throssell, J. A. Montgomery, Jr., J. E. Peralta, 
 F. Ogliaro, M. J. Bearpark, J. J. Heyd, E. N. Brothers, K. N. Kudin, 
 V. N. Staroverov, T. A. Keith, R. Kobayashi, J. Normand, 
 K. Raghavachari, A. P. Rendell, J. C. Burant, S. S. Iyengar, 
 J. Tomasi, M. Cossi, J. M. Millam, M. Klene, C. Adamo, R. Cammi, 
 J. W. Ochterski, R. L. Martin, K. Morokuma, O. Farkas, 
 J. B. Foresman, and D. J. Fox, Gaussian, Inc., Wallingford CT, 2016.
 
 ******************************************
 Gaussian 16:  ES64L-G16RevA.03 25-Dec-2016
                30-Mar-2024 
 ******************************************
 %oldchk=dry-ofreq.chk
 %nprocshared=40
 Will use up to   40 processors via shared memory.
 %mem=14GB
 %chk=dry-v2-ofreq.chk
 Copying data from "dry-ofreq.chk" to current chk file "dry-v2-ofreq.chk"
 IOpt=  2 FromEx=T IUOpen= 4 IOptOp= 5 NList=   0 IFRang= 0 IUIn= 4 IUOut= 2.
 ---------------------------------------------------
 #p opt=readfc freq wb97xd/6-311+g(2d,2p) guess=read
 ---------------------------------------------------
 1/10=3,18=20,19=15,26=3,38=1/1,3;
 2/9=110,12=2,17=6,18=5,40=1/2;
 3/5=4,6=6,7=212,11=2,25=1,30=1,71=1,74=-58,116=-2/1,2,3;
 4/5=1/1;
 5/5=2,38=6/2;
 6/7=2,8=2,9=2,10=2,28=1/1;
 7//1,2,3,16;
 1/18=20,19=15,26=3/3(2);
 2/9=110/2;
 99//99;
 2/9=110/2;
 3/5=4,6=6,7=212,11=2,25=1,30=1,71=1,74=-58/1,2,3;
 4/5=5,16=3,69=1/1;
 5/5=2,38=5/2;
 7//1,2,3,16;
 1/18=20,19=15,26=3/3(-5);
 2/9=110/2;
 6/7=2,8=2,9=2,10=2,19=2,28=1/1;
 99/9=1/99;
 Leave Link    1 at Sat Mar 30 23:42:24 2024, MaxMem=  1879048192 cpu:              21.6 elap:               0.9
 (Enter /packages/apps/gaussian/g16/g16/l101.exe)
 --------
 Required
 --------
 Symbolic Z-matrix:
 Charge =  0 Multiplicity = 1
 C                    0    -4.54434  -3.8584   -0.6739   H 
 C                    0    -4.11926  -2.60806   0.09769  H 
 H                    0    -4.00916  -4.74161  -0.32499  H 
 H                    0    -5.61332  -4.03256  -0.5467   H 
 H                    0    -4.35843  -3.75316  -1.74393  H 
 C                    0    -4.79416  -1.3482   -0.48337  H 
 H                    0    -4.45811  -2.7263    1.13047  H 
 C                    0    -4.93358  -0.17767   0.50397  H 
 H                    0    -5.95406  -0.16176   0.89297  H 
 H                    0    -4.28462  -0.33235   1.36821  H 
 C                    0    -4.60291   1.20372  -0.09702  H 
 C                    0    -5.34216   2.32435   0.64425  H 
 C                    0    -5.08484   3.71371   0.07302  H 
 H                    0    -5.67546   4.4676    0.59365  H 
 H                    0    -4.03386   3.99038   0.16012  H 
 H                    0    -5.35013   3.75268  -0.98537  H 
 C                    0    -2.61523  -2.41795   0.12865  H 
 C                    0    -1.84194  -2.61103  -1.01532  H 
 C                    0    -1.97694  -1.96154   1.27765  H 
 C                    0    -0.4804   -2.36232  -1.0087   H 
 H                    0    -2.30854  -2.93868  -1.93482  H 
 C                    0    -0.61692  -1.69432   1.28641  H 
 H                    0    -2.55592  -1.78986   2.17651  H 
 C                    0     0.1501   -1.90932   0.14599  H 
 H                    0     0.09723  -2.47712  -1.91774  H 
 H                    0    -0.14669  -1.28182   2.17083  H 
 C                    0    -3.09889   1.39624  -0.1306   H 
 C                    0    -2.37062   1.14314  -1.2878   H 
 C                    0    -2.39536   1.75181   1.0197   H 
 C                    0    -0.98676   1.23131  -1.29992  H 
 H                    0    -2.89112   0.8494   -2.19081  H 
 C                    0    -1.01652   1.86379   1.00936  H 
 H                    0    -2.92769   1.92752   1.94554  H 
 C                    0    -0.29603   1.6141   -0.15518  H 
 H                    0    -0.43035   0.96978  -2.19177  H 
 H                    0    -0.4828    2.10362   1.92088  H 
 C                    0     1.20115   1.63907  -0.14255  H 
 H                    0     1.5802    1.45771   0.86069  H 
 H                    0     1.58639   0.90978  -0.84877  H 
 C                    0     1.60235  -1.54437   0.1286   H 
 H                    0     1.92204  -1.2791   -0.87686  H 
 H                    0     1.78406  -0.73327   0.82695  H 
 C                    0     3.3201    2.72648  -0.58593  H 
 H                    0     3.80289   3.66291  -0.85753  H 
 H                    0     3.6153    2.42267   0.41661  H 
 H                    0     3.54789   1.96601  -1.32908  H 
 C                    0     1.514     4.02421   0.39202  H 
 H                    0     0.4374    4.17051   0.39967  H 
 H                    0     1.86839   3.70573   1.37155  H 
 H                    0     2.01172   4.93899   0.07779  H 
 C                    0     1.40983   3.31689  -1.95455  H 
 H                    0     1.63288   2.47659  -2.61221  H 
 H                    0     0.34403   3.52452  -1.94658  H 
 H                    0     1.96053   4.20405  -2.2589   H 
 C                    0     3.92954  -2.03584   0.59329  H 
 H                    0     4.63868  -2.81226   0.8726   H 
 H                    0     4.14286  -1.66753  -0.40839  H 
 H                    0     3.94356  -1.24068   1.3347   H 
 C                    0     2.22968  -3.10151   1.95168  H 
 H                    0     2.22032  -2.22971   2.60614  H 
 H                    0     1.25524  -3.58045   1.9375   H 
 H                    0     2.99085  -3.81263   2.26454  H 
 C                    0     2.53541  -3.76524  -0.39006  H 
 H                    0     1.5347   -4.18814  -0.40573  H 
 H                    0     2.80375  -3.36906  -1.36857  H 
 H                    0     3.25191  -4.5169   -0.06614  H 
 N                    0     1.84195   2.94803  -0.57962  H 
 N                    0     2.5613   -2.63718   0.57767  H 
 C                    0     3.15499  -0.33998  -2.8259   H 
 O                    0     2.03492   0.17717  -2.68575  H 
 O                    0     3.5416   -1.48521  -2.52045  H 
 O                    0     4.11589   0.50636  -3.36415  H 
 H                    0     4.91008  -0.02798  -3.43306  H 
 C                    0     2.97331   0.87865   2.835    H 
 O                    0     2.02827   0.0891    2.67464  H 
 O                    0     3.05718   2.08409   2.52788  H 
 O                    0     4.10664   0.31161   3.40214  H 
 H                    0     4.73428   1.03313   3.48282  H 
 H                    0    -5.78518  -1.61779  -0.85502  L    H        6     0.        0.        0.        0. 
 H                    0    -4.21898  -1.03767  -1.35851  L    H        6     0.        0.        0.        0. 
 H                    0    -5.08192   2.30329   1.70588  H 
 H                    0    -6.41142   2.10476   0.59679  H 
 H                    0    -4.96004   1.21563  -1.13173  H 
 
 Warning:  atom H79 in layer R is uses the same element as its link atom.
 Warning:  atom H80 in layer R is uses the same element as its link atom.
 Add virtual bond connecting atoms O70        and H39        Dist= 3.83D+00.
 Add virtual bond connecting atoms O75        and H42        Dist= 3.85D+00.
 ITRead=  0  0  0  0  0  0  0  0  0  0  0  0  0  0  0  0  0  0  0  0
 ITRead=  0  0  0  0  0  0  0  0  0  0  0  0  0  0  0  0  0  0  0  0
 ITRead=  0  0  0  0  0  0  0  0  0  0  0  0  0  0  0  0  0  0  0  0
 ITRead=  0  0  0  0  0  0  0  0  0  0  0  0  0  0  0  0  0  0  0  0
 ITRead=  0  0  0
 MicOpt= -1 -1 -1 -1 -1 -1 -1 -1 -1 -1 -1 -1 -1 -1 -1 -1 -1 -1 -1 -1
 MicOpt= -1 -1 -1 -1 -1 -1 -1 -1 -1 -1 -1 -1 -1 -1 -1 -1 -1 -1 -1 -1
 MicOpt= -1 -1 -1 -1 -1 -1 -1 -1 -1 -1 -1 -1 -1 -1 -1 -1 -1 -1 -1 -1
 MicOpt= -1 -1 -1 -1 -1 -1 -1 -1 -1 -1 -1 -1 -1 -1 -1 -1 -1 -1 -1 -1
 MicOpt= -1 -1 -1
 NAtoms=     83 NQM=       83 NQMF=       0 NMMI=      0 NMMIF=      0
                NMic=       0 NMicF=      0.
                    Isotopes and Nuclear Properties:
 (Nuclear quadrupole moments (NQMom) in fm**2, nuclear magnetic moments (NMagM)
  in nuclear magnetons)

  Atom         1           2           3           4           5           6           7           8           9          10
 IAtWgt=          12          12           1           1           1          12           1          12           1           1
 AtmWgt=  12.0000000  12.0000000   1.0078250   1.0078250   1.0078250  12.0000000   1.0078250  12.0000000   1.0078250   1.0078250
 NucSpn=           0           0           1           1           1           0           1           0           1           1
 AtZEff=  -0.0000000  -0.0000000  -0.0000000  -0.0000000  -0.0000000  -0.0000000  -0.0000000  -0.0000000  -0.0000000  -0.0000000
 NQMom=    0.0000000   0.0000000   0.0000000   0.0000000   0.0000000   0.0000000   0.0000000   0.0000000   0.0000000   0.0000000
 NMagM=    0.0000000   0.0000000   2.7928460   2.7928460   2.7928460   0.0000000   2.7928460   0.0000000   2.7928460   2.7928460
 AtZNuc=   6.0000000   6.0000000   1.0000000   1.0000000   1.0000000   6.0000000   1.0000000   6.0000000   1.0000000   1.0000000

  Atom        11          12          13          14          15          16          17          18          19          20
 IAtWgt=          12          12          12           1           1           1          12          12          12          12
 AtmWgt=  12.0000000  12.0000000  12.0000000   1.0078250   1.0078250   1.0078250  12.0000000  12.0000000  12.0000000  12.0000000
 NucSpn=           0           0           0           1           1           1           0           0           0           0
 AtZEff=  -0.0000000  -0.0000000  -0.0000000  -0.0000000  -0.0000000  -0.0000000  -0.0000000  -0.0000000  -0.0000000  -0.0000000
 NQMom=    0.0000000   0.0000000   0.0000000   0.0000000   0.0000000   0.0000000   0.0000000   0.0000000   0.0000000   0.0000000
 NMagM=    0.0000000   0.0000000   0.0000000   2.7928460   2.7928460   2.7928460   0.0000000   0.0000000   0.0000000   0.0000000
 AtZNuc=   6.0000000   6.0000000   6.0000000   1.0000000   1.0000000   1.0000000   6.0000000   6.0000000   6.0000000   6.0000000

  Atom        21          22          23          24          25          26          27          28          29          30
 IAtWgt=           1          12           1          12           1           1          12          12          12          12
 AtmWgt=   1.0078250  12.0000000   1.0078250  12.0000000   1.0078250   1.0078250  12.0000000  12.0000000  12.0000000  12.0000000
 NucSpn=           1           0           1           0           1           1           0           0           0           0
 AtZEff=  -0.0000000  -0.0000000  -0.0000000  -0.0000000  -0.0000000  -0.0000000  -0.0000000  -0.0000000  -0.0000000  -0.0000000
 NQMom=    0.0000000   0.0000000   0.0000000   0.0000000   0.0000000   0.0000000   0.0000000   0.0000000   0.0000000   0.0000000
 NMagM=    2.7928460   0.0000000   2.7928460   0.0000000   2.7928460   2.7928460   0.0000000   0.0000000   0.0000000   0.0000000
 AtZNuc=   1.0000000   6.0000000   1.0000000   6.0000000   1.0000000   1.0000000   6.0000000   6.0000000   6.0000000   6.0000000

  Atom        31          32          33          34          35          36          37          38          39          40
 IAtWgt=           1          12           1          12           1           1          12           1           1          12
 AtmWgt=   1.0078250  12.0000000   1.0078250  12.0000000   1.0078250   1.0078250  12.0000000   1.0078250   1.0078250  12.0000000
 NucSpn=           1           0           1           0           1           1           0           1           1           0
 AtZEff=  -0.0000000  -0.0000000  -0.0000000  -0.0000000  -0.0000000  -0.0000000  -0.0000000  -0.0000000  -0.0000000  -0.0000000
 NQMom=    0.0000000   0.0000000   0.0000000   0.0000000   0.0000000   0.0000000   0.0000000   0.0000000   0.0000000   0.0000000
 NMagM=    2.7928460   0.0000000   2.7928460   0.0000000   2.7928460   2.7928460   0.0000000   2.7928460   2.7928460   0.0000000
 AtZNuc=   1.0000000   6.0000000   1.0000000   6.0000000   1.0000000   1.0000000   6.0000000   1.0000000   1.0000000   6.0000000

  Atom        41          42          43          44          45          46          47          48          49          50
 IAtWgt=           1           1          12           1           1           1          12           1           1           1
 AtmWgt=   1.0078250   1.0078250  12.0000000   1.0078250   1.0078250   1.0078250  12.0000000   1.0078250   1.0078250   1.0078250
 NucSpn=           1           1           0           1           1           1           0           1           1           1
 AtZEff=  -0.0000000  -0.0000000  -0.0000000  -0.0000000  -0.0000000  -0.0000000  -0.0000000  -0.0000000  -0.0000000  -0.0000000
 NQMom=    0.0000000   0.0000000   0.0000000   0.0000000   0.0000000   0.0000000   0.0000000   0.0000000   0.0000000   0.0000000
 NMagM=    2.7928460   2.7928460   0.0000000   2.7928460   2.7928460   2.7928460   0.0000000   2.7928460   2.7928460   2.7928460
 AtZNuc=   1.0000000   1.0000000   6.0000000   1.0000000   1.0000000   1.0000000   6.0000000   1.0000000   1.0000000   1.0000000

  Atom        51          52          53          54          55          56          57          58          59          60
 IAtWgt=          12           1           1           1          12           1           1           1          12           1
 AtmWgt=  12.0000000   1.0078250   1.0078250   1.0078250  12.0000000   1.0078250   1.0078250   1.0078250  12.0000000   1.0078250
 NucSpn=           0           1           1           1           0           1           1           1           0           1
 AtZEff=  -0.0000000  -0.0000000  -0.0000000  -0.0000000  -0.0000000  -0.0000000  -0.0000000  -0.0000000  -0.0000000  -0.0000000
 NQMom=    0.0000000   0.0000000   0.0000000   0.0000000   0.0000000   0.0000000   0.0000000   0.0000000   0.0000000   0.0000000
 NMagM=    0.0000000   2.7928460   2.7928460   2.7928460   0.0000000   2.7928460   2.7928460   2.7928460   0.0000000   2.7928460
 AtZNuc=   6.0000000   1.0000000   1.0000000   1.0000000   6.0000000   1.0000000   1.0000000   1.0000000   6.0000000   1.0000000

  Atom        61          62          63          64          65          66          67          68          69          70
 IAtWgt=           1           1          12           1           1           1          14          14          12          16
 AtmWgt=   1.0078250   1.0078250  12.0000000   1.0078250   1.0078250   1.0078250  14.0030740  14.0030740  12.0000000  15.9949146
 NucSpn=           1           1           0           1           1           1           2           2           0           0
 AtZEff=  -0.0000000  -0.0000000  -0.0000000  -0.0000000  -0.0000000  -0.0000000  -0.0000000  -0.0000000  -0.0000000  -0.0000000
 NQMom=    0.0000000   0.0000000   0.0000000   0.0000000   0.0000000   0.0000000   2.0440000   2.0440000   0.0000000   0.0000000
 NMagM=    2.7928460   2.7928460   0.0000000   2.7928460   2.7928460   2.7928460   0.4037610   0.4037610   0.0000000   0.0000000
 AtZNuc=   1.0000000   1.0000000   6.0000000   1.0000000   1.0000000   1.0000000   7.0000000   7.0000000   6.0000000   8.0000000

  Atom        71          72          73          74          75          76          77          78          79          80
 IAtWgt=          16          16           1          12          16          16          16           1           1           1
 AtmWgt=  15.9949146  15.9949146   1.0078250  12.0000000  15.9949146  15.9949146  15.9949146   1.0078250   1.0078250   1.0078250
 NucSpn=           0           0           1           0           0           0           0           1           1           1
 AtZEff=  -0.0000000  -0.0000000  -0.0000000  -0.0000000  -0.0000000  -0.0000000  -0.0000000  -0.0000000  -0.0000000  -0.0000000
 NQMom=    0.0000000   0.0000000   0.0000000   0.0000000   0.0000000   0.0000000   0.0000000   0.0000000   0.0000000   0.0000000
 NMagM=    0.0000000   0.0000000   2.7928460   0.0000000   0.0000000   0.0000000   0.0000000   2.7928460   2.7928460   2.7928460
 AtZNuc=   8.0000000   8.0000000   1.0000000   6.0000000   8.0000000   8.0000000   8.0000000   1.0000000   1.0000000   1.0000000

  Atom        81          82          83
 IAtWgt=           1           1           1
 AtmWgt=   1.0078250   1.0078250   1.0078250
 NucSpn=           1           1           1
 AtZEff=  -0.0000000  -0.0000000  -0.0000000
 NQMom=    0.0000000   0.0000000   0.0000000
 NMagM=    2.7928460   2.7928460   2.7928460
 AtZNuc=   1.0000000   1.0000000   1.0000000
 Leave Link  101 at Sat Mar 30 23:42:25 2024, MaxMem=  1879048192 cpu:              19.5 elap:               0.6
 (Enter /packages/apps/gaussian/g16/g16/l103.exe)

 GradGradGradGradGradGradGradGradGradGradGradGradGradGradGradGradGradGrad
 Berny optimization.
 Initialization pass.
 Force constant matrix read from checkpoint file:
 "dry-v2-ofreq.chk"
 NVar current= 448 chk= 448 common= 448.
                           ----------------------------
                           !    Initial Parameters    !
                           ! (Angstroms and Degrees)  !
 --------------------------                            --------------------------
 ! Name  Definition              Value          Derivative Info.                !
 --------------------------------------------------------------------------------
 ! R1    R(1,2)                  1.5295         D2E/DX2 =    0.2837             !
 ! R2    R(1,3)                  1.0901         D2E/DX2 =    0.3419             !
 ! R3    R(1,4)                  1.0905         D2E/DX2 =    0.3405             !
 ! R4    R(1,5)                  1.0911         D2E/DX2 =    0.3397             !
 ! R5    R(2,6)                  1.5428         D2E/DX2 =    0.3123             !
 ! R6    R(2,7)                  1.0934         D2E/DX2 =    0.3295             !
 ! R7    R(2,17)                 1.5163         D2E/DX2 =    0.302              !
 ! R8    R(6,8)                  1.5377         D2E/DX2 =    0.3016             !
 ! R9    R(6,79)                 1.0922         D2E/DX2 =    0.3332             !
 ! R10   R(6,80)                 1.0923         D2E/DX2 =    0.3354             !
 ! R11   R(8,9)                  1.0922         D2E/DX2 =    0.3331             !
 ! R12   R(8,10)                 1.0918         D2E/DX2 =    0.3367             !
 ! R13   R(8,11)                 1.5423         D2E/DX2 =    0.3124             !
 ! R14   R(11,12)                1.5336         D2E/DX2 =    0.2799             !
 ! R15   R(11,27)                1.5167         D2E/DX2 =    0.2988             !
 ! R16   R(11,83)                1.0947         D2E/DX2 =    0.3269             !
 ! R17   R(12,13)                1.5241         D2E/DX2 =    0.2908             !
 ! R18   R(12,81)                1.0933         D2E/DX2 =    0.3328             !
 ! R19   R(12,82)                1.0926         D2E/DX2 =    0.3333             !
 ! R20   R(13,14)                1.0901         D2E/DX2 =    0.3414             !
 ! R21   R(13,15)                1.0903         D2E/DX2 =    0.3418             !
 ! R22   R(13,16)                1.0918         D2E/DX2 =    0.3375             !
 ! R23   R(17,18)                1.3943         D2E/DX2 =    0.3901             !
 ! R24   R(17,19)                1.3914         D2E/DX2 =    0.4002             !
 ! R25   R(18,20)                1.3841         D2E/DX2 =    0.4628             !
 ! R26   R(18,21)                1.0819         D2E/DX2 =    0.3615             !
 ! R27   R(19,22)                1.3861         D2E/DX2 =    0.458              !
 ! R28   R(19,23)                1.0829         D2E/DX2 =    0.3584             !
 ! R29   R(20,24)                1.3914         D2E/DX2 =    0.4332             !
 ! R30   R(20,25)                1.0831         D2E/DX2 =    0.3587             !
 ! R31   R(22,24)                1.3911         D2E/DX2 =    0.4336             !
 ! R32   R(22,26)                1.0833         D2E/DX2 =    0.3594             !
 ! R33   R(24,40)                1.4975         D2E/DX2 =    0.3264             !
 ! R34   R(27,28)                1.3905         D2E/DX2 =    0.4014             !
 ! R35   R(27,29)                1.3945         D2E/DX2 =    0.3886             !
 ! R36   R(28,30)                1.3867         D2E/DX2 =    0.4577             !
 ! R37   R(28,31)                1.0829         D2E/DX2 =    0.3586             !
 ! R38   R(29,32)                1.3834         D2E/DX2 =    0.4641             !
 ! R39   R(29,33)                1.0823         D2E/DX2 =    0.3604             !
 ! R40   R(30,34)                1.3907         D2E/DX2 =    0.4349             !
 ! R41   R(30,35)                1.0832         D2E/DX2 =    0.3588             !
 ! R42   R(32,34)                1.392          D2E/DX2 =    0.4324             !
 ! R43   R(32,36)                1.0832         D2E/DX2 =    0.3588             !
 ! R44   R(34,37)                1.4974         D2E/DX2 =    0.3255             !
 ! R45   R(37,38)                1.0877         D2E/DX2 =    0.3491             !
 ! R46   R(37,39)                1.0858         D2E/DX2 =    0.3638             !
 ! R47   R(37,67)                1.5215         D2E/DX2 =    0.2705             !
 ! R48   R(39,70)                2.0279         D2E/DX2 =    0.0328             !
 ! R49   R(40,41)                1.0879         D2E/DX2 =    0.3483             !
 ! R50   R(40,42)                1.0856         D2E/DX2 =    0.3644             !
 ! R51   R(40,68)                1.5217         D2E/DX2 =    0.2695             !
 ! R52   R(42,75)                2.0371         D2E/DX2 =    0.0328             !
 ! R53   R(43,44)                1.088          D2E/DX2 =    0.3476             !
 ! R54   R(43,45)                1.0884         D2E/DX2 =    0.3458             !
 ! R55   R(43,46)                1.0874         D2E/DX2 =    0.3512             !
 ! R56   R(43,67)                1.4947         D2E/DX2 =    0.3003             !
 ! R57   R(47,48)                1.0865         D2E/DX2 =    0.352              !
 ! R58   R(47,49)                1.0893         D2E/DX2 =    0.3445             !
 ! R59   R(47,50)                1.0878         D2E/DX2 =    0.3481             !
 ! R60   R(47,67)                1.4865         D2E/DX2 =    0.3079             !
 ! R61   R(51,52)                1.0901         D2E/DX2 =    0.3413             !
 ! R62   R(51,53)                1.0859         D2E/DX2 =    0.3537             !
 ! R63   R(51,54)                1.0876         D2E/DX2 =    0.3484             !
 ! R64   R(51,67)                1.4877         D2E/DX2 =    0.3059             !
 ! R65   R(55,56)                1.088          D2E/DX2 =    0.3476             !
 ! R66   R(55,57)                1.0884         D2E/DX2 =    0.3462             !
 ! R67   R(55,58)                1.0873         D2E/DX2 =    0.3515             !
 ! R68   R(55,68)                1.4946         D2E/DX2 =    0.3004             !
 ! R69   R(59,60)                1.0902         D2E/DX2 =    0.3411             !
 ! R70   R(59,61)                1.0859         D2E/DX2 =    0.3534             !
 ! R71   R(59,62)                1.0876         D2E/DX2 =    0.3484             !
 ! R72   R(59,68)                1.4878         D2E/DX2 =    0.3055             !
 ! R73   R(63,64)                1.0865         D2E/DX2 =    0.352              !
 ! R74   R(63,65)                1.0892         D2E/DX2 =    0.344              !
 ! R75   R(63,66)                1.0878         D2E/DX2 =    0.3481             !
 ! R76   R(63,68)                1.4865         D2E/DX2 =    0.3079             !
 ! R77   R(69,70)                1.2416         D2E/DX2 =    0.6827             !
 ! R78   R(69,71)                1.2467         D2E/DX2 =    0.6643             !
 ! R79   R(69,72)                1.389          D2E/DX2 =    0.3237             !
 ! R80   R(72,73)                0.9597         D2E/DX2 =    0.5459             !
 ! R81   R(74,75)                1.2418         D2E/DX2 =    0.682              !
 ! R82   R(74,76)                1.2468         D2E/DX2 =    0.6642             !
 ! R83   R(74,77)                1.3884         D2E/DX2 =    0.3252             !
 ! R84   R(77,78)                0.9597         D2E/DX2 =    0.5457             !
 ! A1    A(2,1,3)              111.3722         D2E/DX2 =    0.1023             !
 ! A2    A(2,1,4)              110.1295         D2E/DX2 =    0.1037             !
 ! A3    A(2,1,5)              111.6238         D2E/DX2 =    0.1046             !
 ! A4    A(3,1,4)              108.3325         D2E/DX2 =    0.0509             !
 ! A5    A(3,1,5)              107.9624         D2E/DX2 =    0.0522             !
 ! A6    A(4,1,5)              107.2661         D2E/DX2 =    0.0514             !
 ! A7    A(1,2,6)              110.8531         D2E/DX2 =    0.4499             !
 ! A8    A(1,2,7)              107.5771         D2E/DX2 =    0.0951             !
 ! A9    A(1,2,17)             112.859          D2E/DX2 =    0.2183             !
 ! A10   A(6,2,7)              107.9681         D2E/DX2 =    0.0568             !
 ! A11   A(6,2,17)             109.828          D2E/DX2 =    1.2058             !
 ! A12   A(7,2,17)             107.5582         D2E/DX2 =    0.188              !
 ! A13   A(2,6,8)              114.7998         D2E/DX2 =    0.6913             !
 ! A14   A(2,6,79)             108.8754         D2E/DX2 =    0.3124             !
 ! A15   A(2,6,80)             107.6705         D2E/DX2 =    0.2287             !
 ! A16   A(8,6,79)             108.9122         D2E/DX2 =    0.198              !
 ! A17   A(8,6,80)             110.2291         D2E/DX2 =    0.1699             !
 ! A18   A(79,6,80)            105.9817         D2E/DX2 =    0.0301             !
 ! A19   A(6,8,9)              108.9343         D2E/DX2 =    0.1977             !
 ! A20   A(6,8,10)             110.2757         D2E/DX2 =    0.1609             !
 ! A21   A(6,8,11)             114.3406         D2E/DX2 =    0.6539             !
 ! A22   A(9,8,10)             105.9919         D2E/DX2 =    0.0297             !
 ! A23   A(9,8,11)             109.0291         D2E/DX2 =    0.298              !
 ! A24   A(10,8,11)            107.9333         D2E/DX2 =    0.2362             !
 ! A25   A(8,11,12)            111.2714         D2E/DX2 =    0.4511             !
 ! A26   A(8,11,27)            109.5683         D2E/DX2 =    1.2241             !
 ! A27   A(8,11,83)            107.9461         D2E/DX2 =    0.0586             !
 ! A28   A(12,11,27)           113.3273         D2E/DX2 =    0.2298             !
 ! A29   A(12,11,83)           106.9576         D2E/DX2 =    0.0973             !
 ! A30   A(27,11,83)           107.5307         D2E/DX2 =    0.184              !
 ! A31   A(11,12,13)           113.8028         D2E/DX2 =    0.1451             !
 ! A32   A(11,12,81)           109.9107         D2E/DX2 =    0.0523             !
 ! A33   A(11,12,82)           107.6916         D2E/DX2 =    0.0506             !
 ! A34   A(13,12,81)           109.9576         D2E/DX2 =    0.0503             !
 ! A35   A(13,12,82)           109.4            D2E/DX2 =    0.0501             !
 ! A36   A(81,12,82)           105.7394         D2E/DX2 =    0.0184             !
 ! A37   A(12,13,14)           111.0987         D2E/DX2 =    0.1016             !
 ! A38   A(12,13,15)           111.3543         D2E/DX2 =    0.1051             !
 ! A39   A(12,13,16)           110.783          D2E/DX2 =    0.104              !
 ! A40   A(14,13,15)           107.9773         D2E/DX2 =    0.0518             !
 ! A41   A(14,13,16)           107.8579         D2E/DX2 =    0.0511             !
 ! A42   A(15,13,16)           107.6145         D2E/DX2 =    0.0518             !
 ! A43   A(2,17,18)            121.0658         D2E/DX2 =    0.8337             !
 ! A44   A(2,17,19)            120.8652         D2E/DX2 =    0.7968             !
 ! A45   A(18,17,19)           117.9405         D2E/DX2 =    0.091              !
 ! A46   A(17,18,20)           121.1167         D2E/DX2 =    0.1055             !
 ! A47   A(17,18,21)           120.004          D2E/DX2 =    0.089              !
 ! A48   A(20,18,21)           118.8641         D2E/DX2 =    0.091              !
 ! A49   A(17,19,22)           121.2381         D2E/DX2 =    0.111              !
 ! A50   A(17,19,23)           119.4848         D2E/DX2 =    0.0909             !
 ! A51   A(22,19,23)           119.2624         D2E/DX2 =    0.0904             !
 ! A52   A(18,20,24)           120.5459         D2E/DX2 =    0.086              !
 ! A53   A(18,20,25)           120.1018         D2E/DX2 =    0.0847             !
 ! A54   A(24,20,25)           119.2968         D2E/DX2 =    0.0861             !
 ! A55   A(19,22,24)           120.4007         D2E/DX2 =    0.0853             !
 ! A56   A(19,22,26)           120.2988         D2E/DX2 =    0.086              !
 ! A57   A(24,22,26)           119.2637         D2E/DX2 =    0.0883             !
 ! A58   A(20,24,22)           118.7377         D2E/DX2 =    0.0907             !
 ! A59   A(20,24,40)           120.6071         D2E/DX2 =    0.349              !
 ! A60   A(22,24,40)           120.4357         D2E/DX2 =    0.3355             !
 ! A61   A(11,27,28)           120.9775         D2E/DX2 =    0.8128             !
 ! A62   A(11,27,29)           120.9575         D2E/DX2 =    0.8469             !
 ! A63   A(28,27,29)           117.9475         D2E/DX2 =    0.0903             !
 ! A64   A(27,28,30)           121.2225         D2E/DX2 =    0.1111             !
 ! A65   A(27,28,31)           119.4459         D2E/DX2 =    0.0913             !
 ! A66   A(30,28,31)           119.3163         D2E/DX2 =    0.0907             !
 ! A67   A(27,29,32)           121.1519         D2E/DX2 =    0.1063             !
 ! A68   A(27,29,33)           119.9264         D2E/DX2 =    0.0885             !
 ! A69   A(32,29,33)           118.9123         D2E/DX2 =    0.0904             !
 ! A70   A(28,30,34)           120.3951         D2E/DX2 =    0.0853             !
 ! A71   A(28,30,35)           120.2943         D2E/DX2 =    0.0849             !
 ! A72   A(34,30,35)           119.2776         D2E/DX2 =    0.0876             !
 ! A73   A(29,32,34)           120.5059         D2E/DX2 =    0.0856             !
 ! A74   A(29,32,36)           120.1813         D2E/DX2 =    0.0846             !
 ! A75   A(34,32,36)           119.2557         D2E/DX2 =    0.0862             !
 ! A76   A(30,34,32)           118.7463         D2E/DX2 =    0.09               !
 ! A77   A(30,34,37)           120.5389         D2E/DX2 =    0.3305             !
 ! A78   A(32,34,37)           120.4952         D2E/DX2 =    0.3467             !
 ! A79   A(34,37,38)           110.6971         D2E/DX2 =    0.046              !
 ! A80   A(34,37,39)           109.7576         D2E/DX2 =    0.0941             !
 ! A81   A(34,37,67)           115.6589         D2E/DX2 =    0.1657             !
 ! A82   A(38,37,39)           111.3624         D2E/DX2 =    0.0384             !
 ! A83   A(38,37,67)           105.167          D2E/DX2 =    0.059              !
 ! A84   A(39,37,67)           103.9787         D2E/DX2 =    0.1312             !
 ! A85   A(37,39,70)           155.5438         D2E/DX2 =    0.5758             !
 ! A86   A(24,40,41)           110.8014         D2E/DX2 =    0.0465             !
 ! A87   A(24,40,42)           109.6896         D2E/DX2 =    0.0991             !
 ! A88   A(24,40,68)           115.6392         D2E/DX2 =    0.1642             !
 ! A89   A(41,40,42)           111.2945         D2E/DX2 =    0.0391             !
 ! A90   A(41,40,68)           105.2293         D2E/DX2 =    0.0585             !
 ! A91   A(42,40,68)           103.9601         D2E/DX2 =    0.1331             !
 ! A92   A(40,42,75)           154.8394         D2E/DX2 =    0.6037             !
 ! A93   A(44,43,45)           110.4777         D2E/DX2 =    0.0533             !
 ! A94   A(44,43,46)           109.7768         D2E/DX2 =    0.053              !
 ! A95   A(44,43,67)           108.1985         D2E/DX2 =    0.1361             !
 ! A96   A(45,43,46)           112.178          D2E/DX2 =    0.0548             !
 ! A97   A(45,43,67)           107.8015         D2E/DX2 =    0.142              !
 ! A98   A(46,43,67)           108.2831         D2E/DX2 =    0.1395             !
 ! A99   A(48,47,49)           110.8182         D2E/DX2 =    0.0535             !
 ! A100  A(48,47,50)           110.0089         D2E/DX2 =    0.0532             !
 ! A101  A(48,47,67)           108.7044         D2E/DX2 =    0.1335             !
 ! A102  A(49,47,50)           110.9032         D2E/DX2 =    0.053              !
 ! A103  A(49,47,67)           107.718          D2E/DX2 =    0.1394             !
 ! A104  A(50,47,67)           108.6059         D2E/DX2 =    0.1328             !
 ! A105  A(52,51,53)           110.6494         D2E/DX2 =    0.0543             !
 ! A106  A(52,51,54)           110.875          D2E/DX2 =    0.0529             !
 ! A107  A(52,51,67)           107.8791         D2E/DX2 =    0.1412             !
 ! A108  A(53,51,54)           110.0634         D2E/DX2 =    0.0534             !
 ! A109  A(53,51,67)           109.0096         D2E/DX2 =    0.1335             !
 ! A110  A(54,51,67)           108.2874         D2E/DX2 =    0.1331             !
 ! A111  A(56,55,57)           110.4887         D2E/DX2 =    0.0533             !
 ! A112  A(56,55,58)           109.7821         D2E/DX2 =    0.0527             !
 ! A113  A(56,55,68)           108.194          D2E/DX2 =    0.1362             !
 ! A114  A(57,55,58)           112.1833         D2E/DX2 =    0.0548             !
 ! A115  A(57,55,68)           107.816          D2E/DX2 =    0.1421             !
 ! A116  A(58,55,68)           108.2504         D2E/DX2 =    0.1383             !
 ! A117  A(60,59,61)           110.6624         D2E/DX2 =    0.0543             !
 ! A118  A(60,59,62)           110.8654         D2E/DX2 =    0.0529             !
 ! A119  A(60,59,68)           107.8641         D2E/DX2 =    0.1417             !
 ! A120  A(61,59,62)           110.0845         D2E/DX2 =    0.053              !
 ! A121  A(61,59,68)           109.0028         D2E/DX2 =    0.1316             !
 ! A122  A(62,59,68)           108.2835         D2E/DX2 =    0.1329             !
 ! A123  A(64,63,65)           110.8252         D2E/DX2 =    0.0535             !
 ! A124  A(64,63,66)           109.9989         D2E/DX2 =    0.0532             !
 ! A125  A(64,63,68)           108.7112         D2E/DX2 =    0.1335             !
 ! A126  A(65,63,66)           110.8893         D2E/DX2 =    0.053              !
 ! A127  A(65,63,68)           107.7294         D2E/DX2 =    0.1392             !
 ! A128  A(66,63,68)           108.6054         D2E/DX2 =    0.1326             !
 ! A129  A(37,67,43)           106.8699         D2E/DX2 =    0.04               !
 ! A130  A(37,67,47)           110.0073         D2E/DX2 =    0.0399             !
 ! A131  A(37,67,51)           110.8826         D2E/DX2 =    0.0419             !
 ! A132  A(43,67,47)           109.1623         D2E/DX2 =    0.0364             !
 ! A133  A(43,67,51)           108.6691         D2E/DX2 =    0.0376             !
 ! A134  A(47,67,51)           111.1311         D2E/DX2 =    0.0361             !
 ! A135  A(40,68,55)           106.9203         D2E/DX2 =    0.0396             !
 ! A136  A(40,68,59)           110.8681         D2E/DX2 =    0.0418             !
 ! A137  A(40,68,63)           109.9924         D2E/DX2 =    0.0398             !
 ! A138  A(55,68,59)           108.6606         D2E/DX2 =    0.0376             !
 ! A139  A(55,68,63)           109.1513         D2E/DX2 =    0.0363             !
 ! A140  A(59,68,63)           111.1315         D2E/DX2 =    0.0359             !
 ! A141  A(70,69,71)           129.3967         D2E/DX2 =    0.215              !
 ! A142  A(70,69,72)           114.4574         D2E/DX2 =    0.2133             !
 ! A143  A(71,69,72)           116.1122         D2E/DX2 =    0.2228             !
 ! A144  A(39,70,69)           116.888          D2E/DX2 =    0.1548             !
 ! A145  A(69,72,73)           105.1326         D2E/DX2 =    0.1759             !
 ! A146  A(75,74,76)           129.3519         D2E/DX2 =    0.216              !
 ! A147  A(75,74,77)           114.4741         D2E/DX2 =    0.214              !
 ! A148  A(76,74,77)           116.1414         D2E/DX2 =    0.2232             !
 ! A149  A(42,75,74)           117.711          D2E/DX2 =    0.1551             !
 ! A150  A(74,77,78)           105.1379         D2E/DX2 =    0.1761             !
 ! D1    D(3,1,2,6)            175.2336         D2E/DX2 =    0.1469             !
 ! D2    D(3,1,2,7)            -66.93           D2E/DX2 =    0.0151             !
 ! D3    D(3,1,2,17)            51.5574         D2E/DX2 =    0.1719             !
 ! D4    D(4,1,2,6)            -64.5565         D2E/DX2 =    0.1467             !
 ! D5    D(4,1,2,7)             53.2799         D2E/DX2 =    0.0153             !
 ! D6    D(4,1,2,17)           171.7673         D2E/DX2 =    0.1724             !
 ! D7    D(5,1,2,6)             54.4787         D2E/DX2 =    0.1468             !
 ! D8    D(5,1,2,7)            172.3151         D2E/DX2 =    0.0151             !
 ! D9    D(5,1,2,17)           -69.1975         D2E/DX2 =    0.1725             !
 ! D10   D(1,2,6,8)            155.463          D2E/DX2 =    0.086              !
 ! D11   D(1,2,6,79)            33.0977         D2E/DX2 =    0.0315             !
 ! D12   D(1,2,6,80)           -81.3779         D2E/DX2 =    0.0401             !
 ! D13   D(7,2,6,8)             37.8652         D2E/DX2 =    0.1015             !
 ! D14   D(7,2,6,79)           -84.5001         D2E/DX2 =    0.0538             !
 ! D15   D(7,2,6,80)           161.0243         D2E/DX2 =    0.0736             !
 ! D16   D(17,2,6,8)           -79.1396         D2E/DX2 =    0.2769             !
 ! D17   D(17,2,6,79)          158.4951         D2E/DX2 =    0.1332             !
 ! D18   D(17,2,6,80)           44.0195         D2E/DX2 =    0.1084             !
 ! D19   D(1,2,17,18)           43.4051         D2E/DX2 =    0.0308             !
 ! D20   D(1,2,17,19)         -140.8001         D2E/DX2 =    0.0605             !
 ! D21   D(6,2,17,18)          -80.8354         D2E/DX2 =    0.0782             !
 ! D22   D(6,2,17,19)           94.9594         D2E/DX2 =    0.1869             !
 ! D23   D(7,2,17,18)          161.9035         D2E/DX2 =    0.0486             !
 ! D24   D(7,2,17,19)          -22.3016         D2E/DX2 =    0.0442             !
 ! D25   D(2,6,8,9)           -100.0853         D2E/DX2 =    0.2335             !
 ! D26   D(2,6,8,10)            15.8421         D2E/DX2 =    0.2055             !
 ! D27   D(2,6,8,11)           137.6716         D2E/DX2 =    0.7109             !
 ! D28   D(79,6,8,9)            22.2601         D2E/DX2 =    0.0274             !
 ! D29   D(79,6,8,10)          138.1875         D2E/DX2 =    0.0384             !
 ! D30   D(79,6,8,11)          -99.9831         D2E/DX2 =    0.2426             !
 ! D31   D(80,6,8,9)           138.1364         D2E/DX2 =    0.038              !
 ! D32   D(80,6,8,10)         -105.9362         D2E/DX2 =    0.0437             !
 ! D33   D(80,6,8,11)           15.8933         D2E/DX2 =    0.2073             !
 ! D34   D(6,8,11,12)          153.649          D2E/DX2 =    0.0867             !
 ! D35   D(6,8,11,27)          -80.2391         D2E/DX2 =    0.2751             !
 ! D36   D(6,8,11,83)           36.5787         D2E/DX2 =    0.1007             !
 ! D37   D(9,8,11,12)           31.4577         D2E/DX2 =    0.0321             !
 ! D38   D(9,8,11,27)          157.5696         D2E/DX2 =    0.1304             !
 ! D39   D(9,8,11,83)          -85.6126         D2E/DX2 =    0.0543             !
 ! D40   D(10,8,11,12)         -83.2463         D2E/DX2 =    0.0391             !
 ! D41   D(10,8,11,27)          42.8656         D2E/DX2 =    0.1046             !
 ! D42   D(10,8,11,83)         159.6835         D2E/DX2 =    0.071              !
 ! D43   D(8,11,12,13)        -178.4806         D2E/DX2 =    0.1458             !
 ! D44   D(8,11,12,81)          57.702          D2E/DX2 =    0.1456             !
 ! D45   D(8,11,12,82)         -57.0296         D2E/DX2 =    0.1463             !
 ! D46   D(27,11,12,13)         57.5123         D2E/DX2 =    0.1723             !
 ! D47   D(27,11,12,81)        -66.3051         D2E/DX2 =    0.1703             !
 ! D48   D(27,11,12,82)        178.9634         D2E/DX2 =    0.1716             !
 ! D49   D(83,11,12,13)        -60.8101         D2E/DX2 =    0.015              !
 ! D50   D(83,11,12,81)        175.3725         D2E/DX2 =    0.0152             !
 ! D51   D(83,11,12,82)         60.6409         D2E/DX2 =    0.0157             !
 ! D52   D(8,11,27,28)          97.1935         D2E/DX2 =    0.1756             !
 ! D53   D(8,11,27,29)         -78.7831         D2E/DX2 =    0.0765             !
 ! D54   D(12,11,27,28)       -137.8758         D2E/DX2 =    0.0568             !
 ! D55   D(12,11,27,29)         46.1476         D2E/DX2 =    0.0325             !
 ! D56   D(83,11,27,28)        -19.8857         D2E/DX2 =    0.0411             !
 ! D57   D(83,11,27,29)        164.1377         D2E/DX2 =    0.0516             !
 ! D58   D(11,12,13,14)        176.6544         D2E/DX2 =    0.0142             !
 ! D59   D(11,12,13,15)        -62.9439         D2E/DX2 =    0.014              !
 ! D60   D(11,12,13,16)         56.7863         D2E/DX2 =    0.0137             !
 ! D61   D(81,12,13,14)        -59.5536         D2E/DX2 =    0.0144             !
 ! D62   D(81,12,13,15)         60.8481         D2E/DX2 =    0.0151             !
 ! D63   D(81,12,13,16)       -179.4217         D2E/DX2 =    0.0144             !
 ! D64   D(82,12,13,14)         56.1582         D2E/DX2 =    0.0146             !
 ! D65   D(82,12,13,15)        176.5599         D2E/DX2 =    0.0144             !
 ! D66   D(82,12,13,16)        -63.7098         D2E/DX2 =    0.0151             !
 ! D67   D(2,17,18,20)         176.1789         D2E/DX2 =    0.1218             !
 ! D68   D(2,17,18,21)          -2.3875         D2E/DX2 =    0.0502             !
 ! D69   D(19,17,18,20)          0.2646         D2E/DX2 =    0.0218             !
 ! D70   D(19,17,18,21)       -178.3018         D2E/DX2 =    0.0076             !
 ! D71   D(2,17,19,22)        -175.3583         D2E/DX2 =    0.1886             !
 ! D72   D(2,17,19,23)           3.236          D2E/DX2 =    0.0575             !
 ! D73   D(18,17,19,22)          0.5646         D2E/DX2 =    0.0365             !
 ! D74   D(18,17,19,23)        179.159          D2E/DX2 =    0.0089             !
 ! D75   D(17,18,20,24)         -0.1064         D2E/DX2 =    0.0197             !
 ! D76   D(17,18,20,25)       -177.3783         D2E/DX2 =    0.0215             !
 ! D77   D(21,18,20,24)        178.476          D2E/DX2 =    0.0399             !
 ! D78   D(21,18,20,25)          1.2041         D2E/DX2 =    0.0103             !
 ! D79   D(17,19,22,24)         -1.5589         D2E/DX2 =    0.0201             !
 ! D80   D(17,19,22,26)        176.22           D2E/DX2 =    0.0355             !
 ! D81   D(23,19,22,24)        179.8437         D2E/DX2 =    0.0307             !
 ! D82   D(23,19,22,26)         -2.3774         D2E/DX2 =    0.0118             !
 ! D83   D(18,20,24,22)         -0.8645         D2E/DX2 =    0.0352             !
 ! D84   D(18,20,24,40)       -175.5055         D2E/DX2 =    0.068              !
 ! D85   D(25,20,24,22)        176.4292         D2E/DX2 =    0.0076             !
 ! D86   D(25,20,24,40)          1.7882         D2E/DX2 =    0.0153             !
 ! D87   D(19,22,24,20)          1.6831         D2E/DX2 =    0.0211             !
 ! D88   D(19,22,24,40)        176.3335         D2E/DX2 =    0.0538             !
 ! D89   D(26,22,24,20)       -176.1187         D2E/DX2 =    0.0082             !
 ! D90   D(26,22,24,40)         -1.4683         D2E/DX2 =    0.0214             !
 ! D91   D(20,24,40,41)         23.9588         D2E/DX2 =    0.0248             !
 ! D92   D(20,24,40,42)        147.2265         D2E/DX2 =    0.1361             !
 ! D93   D(20,24,40,68)        -95.6465         D2E/DX2 =    0.0398             !
 ! D94   D(22,24,40,41)       -150.5909         D2E/DX2 =    0.0211             !
 ! D95   D(22,24,40,42)        -27.3232         D2E/DX2 =    0.0931             !
 ! D96   D(22,24,40,68)         89.8037         D2E/DX2 =    0.0337             !
 ! D97   D(11,27,28,30)       -175.6547         D2E/DX2 =    0.18               !
 ! D98   D(11,27,28,31)          2.9139         D2E/DX2 =    0.0561             !
 ! D99   D(29,27,28,30)          0.4397         D2E/DX2 =    0.0348             !
 ! D100  D(29,27,28,31)        179.0083         D2E/DX2 =    0.0089             !
 ! D101  D(11,27,29,32)        176.7615         D2E/DX2 =    0.1188             !
 ! D102  D(11,27,29,33)         -2.1107         D2E/DX2 =    0.0483             !
 ! D103  D(28,27,29,32)          0.6663         D2E/DX2 =    0.0218             !
 ! D104  D(28,27,29,33)       -178.2059         D2E/DX2 =    0.0076             !
 ! D105  D(27,28,30,34)         -1.8131         D2E/DX2 =    0.0195             !
 ! D106  D(27,28,30,35)        176.0837         D2E/DX2 =    0.034              !
 ! D107  D(31,28,30,34)        179.6164         D2E/DX2 =    0.0306             !
 ! D108  D(31,28,30,35)         -2.4867         D2E/DX2 =    0.0117             !
 ! D109  D(27,29,32,34)         -0.4084         D2E/DX2 =    0.0194             !
 ! D110  D(27,29,32,36)       -177.6396         D2E/DX2 =    0.0215             !
 ! D111  D(33,29,32,34)        178.475          D2E/DX2 =    0.0381             !
 ! D112  D(33,29,32,36)          1.2437         D2E/DX2 =    0.0104             !
 ! D113  D(28,30,34,32)          2.0399         D2E/DX2 =    0.021              !
 ! D114  D(28,30,34,37)        176.6813         D2E/DX2 =    0.0528             !
 ! D115  D(35,30,34,32)       -175.8782         D2E/DX2 =    0.0081             !
 ! D116  D(35,30,34,37)         -1.2368         D2E/DX2 =    0.0208             !
 ! D117  D(29,32,34,30)         -0.9475         D2E/DX2 =    0.0336             !
 ! D118  D(29,32,34,37)       -175.5914         D2E/DX2 =    0.0645             !
 ! D119  D(36,32,34,30)        176.3091         D2E/DX2 =    0.0076             !
 ! D120  D(36,32,34,37)          1.6653         D2E/DX2 =    0.015              !
 ! D121  D(30,34,37,38)       -151.3175         D2E/DX2 =    0.0215             !
 ! D122  D(30,34,37,39)        -27.9878         D2E/DX2 =    0.0897             !
 ! D123  D(30,34,37,67)         89.2251         D2E/DX2 =    0.0346             !
 ! D124  D(32,34,37,38)         23.2298         D2E/DX2 =    0.0244             !
 ! D125  D(32,34,37,39)        146.5595         D2E/DX2 =    0.1297             !
 ! D126  D(32,34,37,67)        -96.2276         D2E/DX2 =    0.0395             !
 ! D127  D(34,37,39,70)         75.0925         D2E/DX2 =    0.0604             !
 ! D128  D(38,37,39,70)       -161.9696         D2E/DX2 =    0.0191             !
 ! D129  D(67,37,39,70)        -49.2093         D2E/DX2 =    0.037              !
 ! D130  D(34,37,67,43)       -176.1036         D2E/DX2 =    0.0268             !
 ! D131  D(34,37,67,47)         65.5074         D2E/DX2 =    0.0239             !
 ! D132  D(34,37,67,51)        -57.8283         D2E/DX2 =    0.0234             !
 ! D133  D(38,37,67,43)         61.4532         D2E/DX2 =    0.0163             !
 ! D134  D(38,37,67,47)        -56.9357         D2E/DX2 =    0.0149             !
 ! D135  D(38,37,67,51)        179.7285         D2E/DX2 =    0.0154             !
 ! D136  D(39,37,67,43)        -55.7024         D2E/DX2 =    0.0246             !
 ! D137  D(39,37,67,47)       -174.0914         D2E/DX2 =    0.0226             !
 ! D138  D(39,37,67,51)         62.5729         D2E/DX2 =    0.0224             !
 ! D139  D(37,39,70,69)        135.0995         D2E/DX2 =    0.076              !
 ! D140  D(24,40,42,75)         75.4083         D2E/DX2 =    0.0615             !
 ! D141  D(41,40,42,75)       -161.6149         D2E/DX2 =    0.0196             !
 ! D142  D(68,40,42,75)        -48.8217         D2E/DX2 =    0.0367             !
 ! D143  D(24,40,68,55)       -175.427          D2E/DX2 =    0.0273             !
 ! D144  D(24,40,68,59)        -57.1398         D2E/DX2 =    0.0239             !
 ! D145  D(24,40,68,63)         66.1762         D2E/DX2 =    0.0244             !
 ! D146  D(41,40,68,55)         61.963          D2E/DX2 =    0.0163             !
 ! D147  D(41,40,68,59)       -179.7499         D2E/DX2 =    0.0153             !
 ! D148  D(41,40,68,63)        -56.4338         D2E/DX2 =    0.0147             !
 ! D149  D(42,40,68,55)        -55.1348         D2E/DX2 =    0.0249             !
 ! D150  D(42,40,68,59)         63.1523         D2E/DX2 =    0.0229             !
 ! D151  D(42,40,68,63)       -173.5316         D2E/DX2 =    0.023              !
 ! D152  D(40,42,75,74)        134.657          D2E/DX2 =    0.0794             !
 ! D153  D(44,43,67,37)       -177.7608         D2E/DX2 =    0.0177             !
 ! D154  D(44,43,67,47)        -58.8219         D2E/DX2 =    0.0156             !
 ! D155  D(44,43,67,51)         62.5277         D2E/DX2 =    0.016              !
 ! D156  D(45,43,67,37)        -58.2661         D2E/DX2 =    0.0194             !
 ! D157  D(45,43,67,47)         60.6727         D2E/DX2 =    0.0168             !
 ! D158  D(45,43,67,51)       -177.9777         D2E/DX2 =    0.0173             !
 ! D159  D(46,43,67,37)         63.3101         D2E/DX2 =    0.0186             !
 ! D160  D(46,43,67,47)       -177.7511         D2E/DX2 =    0.0166             !
 ! D161  D(46,43,67,51)        -56.4015         D2E/DX2 =    0.0167             !
 ! D162  D(48,47,67,37)        -62.3365         D2E/DX2 =    0.0172             !
 ! D163  D(48,47,67,43)       -179.304          D2E/DX2 =    0.0169             !
 ! D164  D(48,47,67,51)         60.8538         D2E/DX2 =    0.016              !
 ! D165  D(49,47,67,37)         57.8008         D2E/DX2 =    0.0186             !
 ! D166  D(49,47,67,43)        -59.1666         D2E/DX2 =    0.0173             !
 ! D167  D(49,47,67,51)       -179.0089         D2E/DX2 =    0.017              !
 ! D168  D(50,47,67,37)        177.9841         D2E/DX2 =    0.0171             !
 ! D169  D(50,47,67,43)         61.0166         D2E/DX2 =    0.0163             !
 ! D170  D(50,47,67,51)        -58.8256         D2E/DX2 =    0.0157             !
 ! D171  D(52,51,67,37)        -54.7572         D2E/DX2 =    0.0181             !
 ! D172  D(52,51,67,43)         62.421          D2E/DX2 =    0.0172             !
 ! D173  D(52,51,67,47)       -177.4439         D2E/DX2 =    0.0165             !
 ! D174  D(53,51,67,37)         65.445          D2E/DX2 =    0.0169             !
 ! D175  D(53,51,67,43)       -177.3767         D2E/DX2 =    0.0167             !
 ! D176  D(53,51,67,47)        -57.2416         D2E/DX2 =    0.0154             !
 ! D177  D(54,51,67,37)       -174.8191         D2E/DX2 =    0.0166             !
 ! D178  D(54,51,67,43)        -57.6409         D2E/DX2 =    0.016              !
 ! D179  D(54,51,67,47)         62.4942         D2E/DX2 =    0.0151             !
 ! D180  D(56,55,68,40)       -177.6978         D2E/DX2 =    0.0175             !
 ! D181  D(56,55,68,59)         62.5841         D2E/DX2 =    0.016              !
 ! D182  D(56,55,68,63)        -58.7541         D2E/DX2 =    0.0156             !
 ! D183  D(57,55,68,40)        -58.1844         D2E/DX2 =    0.0194             !
 ! D184  D(57,55,68,59)       -177.9025         D2E/DX2 =    0.0174             !
 ! D185  D(57,55,68,63)         60.7593         D2E/DX2 =    0.0167             !
 ! D186  D(58,55,68,40)         63.3877         D2E/DX2 =    0.0184             !
 ! D187  D(58,55,68,59)        -56.3304         D2E/DX2 =    0.0167             !
 ! D188  D(58,55,68,63)       -177.6686         D2E/DX2 =    0.0165             !
 ! D189  D(60,59,68,40)        -54.8646         D2E/DX2 =    0.0181             !
 ! D190  D(60,59,68,55)         62.3614         D2E/DX2 =    0.0171             !
 ! D191  D(60,59,68,63)       -177.5224         D2E/DX2 =    0.0165             !
 ! D192  D(61,59,68,40)         65.3406         D2E/DX2 =    0.0166             !
 ! D193  D(61,59,68,55)       -177.4335         D2E/DX2 =    0.0165             !
 ! D194  D(61,59,68,63)        -57.3172         D2E/DX2 =    0.0154             !
 ! D195  D(62,59,68,40)       -174.9043         D2E/DX2 =    0.0165             !
 ! D196  D(62,59,68,55)        -57.6784         D2E/DX2 =    0.0159             !
 ! D197  D(62,59,68,63)         62.4379         D2E/DX2 =    0.0152             !
 ! D198  D(64,63,68,40)        -62.2207         D2E/DX2 =    0.0171             !
 ! D199  D(64,63,68,55)       -179.234          D2E/DX2 =    0.0169             !
 ! D200  D(64,63,68,59)         60.9412         D2E/DX2 =    0.0159             !
 ! D201  D(65,63,68,40)         57.9354         D2E/DX2 =    0.0184             !
 ! D202  D(65,63,68,55)        -59.0779         D2E/DX2 =    0.0173             !
 ! D203  D(65,63,68,59)       -178.9028         D2E/DX2 =    0.0169             !
 ! D204  D(66,63,68,40)        178.1084         D2E/DX2 =    0.017              !
 ! D205  D(66,63,68,55)         61.0951         D2E/DX2 =    0.0163             !
 ! D206  D(66,63,68,59)        -58.7298         D2E/DX2 =    0.0157             !
 ! D207  D(71,69,70,39)         80.9406         D2E/DX2 =    0.0546             !
 ! D208  D(72,69,70,39)        -96.8387         D2E/DX2 =    0.0398             !
 ! D209  D(70,69,72,73)       -178.6417         D2E/DX2 =    0.0398             !
 ! D210  D(71,69,72,73)          3.2693         D2E/DX2 =    0.0362             !
 ! D211  D(76,74,75,42)         79.9121         D2E/DX2 =    0.0542             !
 ! D212  D(77,74,75,42)        -97.9066         D2E/DX2 =    0.0405             !
 ! D213  D(75,74,77,78)       -178.7038         D2E/DX2 =    0.0399             !
 ! D214  D(76,74,77,78)          3.175          D2E/DX2 =    0.0362             !
 --------------------------------------------------------------------------------
 Trust Radius=3.00D-01 FncErr=1.00D-07 GrdErr=1.00D-06 EigMax=2.50D+02 EigMin=1.00D-04
 Number of steps in this run=    458 maximum allowed number of steps=    498.
 GradGradGradGradGradGradGradGradGradGradGradGradGradGradGradGradGradGrad

 Leave Link  103 at Sat Mar 30 23:42:26 2024, MaxMem=  1879048192 cpu:               2.5 elap:               0.1
 (Enter /packages/apps/gaussian/g16/g16/l202.exe)
 Stoichiometry    C29H46N2O6
 Framework group  C1[X(C29H46N2O6)]
 Deg. of freedom   243
 Full point group                 C1      NOp   1
 Largest Abelian subgroup         C1      NOp   1
 Largest concise Abelian subgroup C1      NOp   1
                         Standard orientation:                         
 ---------------------------------------------------------------------
 Center     Atomic      Atomic             Coordinates (Angstroms)
 Number     Number       Type             X           Y           Z
 ---------------------------------------------------------------------
      1          6           0       -4.544343   -3.858397   -0.673904
      2          6           0       -4.119263   -2.608064    0.097689
      3          1           0       -4.009156   -4.741608   -0.324987
      4          1           0       -5.613322   -4.032563   -0.546696
      5          1           0       -4.358434   -3.753155   -1.743931
      6          6           0       -4.794162   -1.348201   -0.483370
      7          1           0       -4.458107   -2.726301    1.130469
      8          6           0       -4.933576   -0.177667    0.503974
      9          1           0       -5.954058   -0.161758    0.892969
     10          1           0       -4.284621   -0.332348    1.368208
     11          6           0       -4.602905    1.203718   -0.097016
     12          6           0       -5.342162    2.324346    0.644251
     13          6           0       -5.084838    3.713714    0.073022
     14          1           0       -5.675455    4.467601    0.593654
     15          1           0       -4.033861    3.990375    0.160123
     16          1           0       -5.350133    3.752679   -0.985374
     17          6           0       -2.615229   -2.417945    0.128647
     18          6           0       -1.841935   -2.611032   -1.015323
     19          6           0       -1.976938   -1.961539    1.277647
     20          6           0       -0.480398   -2.362320   -1.008697
     21          1           0       -2.308535   -2.938680   -1.934819
     22          6           0       -0.616917   -1.694322    1.286413
     23          1           0       -2.555921   -1.789864    2.176510
     24          6           0        0.150099   -1.909319    0.145987
     25          1           0        0.097229   -2.477122   -1.917744
     26          1           0       -0.146685   -1.281818    2.170833
     27          6           0       -3.098887    1.396238   -0.130602
     28          6           0       -2.370615    1.143144   -1.287796
     29          6           0       -2.395358    1.751811    1.019704
     30          6           0       -0.986756    1.231310   -1.299915
     31          1           0       -2.891120    0.849402   -2.190812
     32          6           0       -1.016519    1.863793    1.009357
     33          1           0       -2.927688    1.927518    1.945540
     34          6           0       -0.296026    1.614098   -0.155182
     35          1           0       -0.430347    0.969784   -2.191772
     36          1           0       -0.482803    2.103621    1.920875
     37          6           0        1.201152    1.639074   -0.142554
     38          1           0        1.580202    1.457708    0.860690
     39          1           0        1.586394    0.909780   -0.848772
     40          6           0        1.602353   -1.544372    0.128602
     41          1           0        1.922038   -1.279103   -0.876860
     42          1           0        1.784059   -0.733272    0.826948
     43          6           0        3.320098    2.726477   -0.585934
     44          1           0        3.802885    3.662908   -0.857527
     45          1           0        3.615298    2.422665    0.416605
     46          1           0        3.547892    1.966010   -1.329084
     47          6           0        1.514001    4.024206    0.392018
     48          1           0        0.437403    4.170508    0.399673
     49          1           0        1.868385    3.705725    1.371551
     50          1           0        2.011718    4.938994    0.077786
     51          6           0        1.409828    3.316886   -1.954547
     52          1           0        1.632879    2.476588   -2.612209
     53          1           0        0.344026    3.524516   -1.946577
     54          1           0        1.960530    4.204046   -2.258895
     55          6           0        3.929544   -2.035839    0.593290
     56          1           0        4.638684   -2.812262    0.872597
     57          1           0        4.142862   -1.667527   -0.408387
     58          1           0        3.943563   -1.240678    1.334698
     59          6           0        2.229675   -3.101512    1.951680
     60          1           0        2.220321   -2.229710    2.606143
     61          1           0        1.255236   -3.580450    1.937496
     62          1           0        2.990847   -3.812627    2.264543
     63          6           0        2.535408   -3.765240   -0.390057
     64          1           0        1.534695   -4.188138   -0.405726
     65          1           0        2.803753   -3.369058   -1.368568
     66          1           0        3.251913   -4.516902   -0.066137
     67          7           0        1.841953    2.948025   -0.579619
     68          7           0        2.561295   -2.637184    0.577670
     69          6           0        3.154993   -0.339981   -2.825898
     70          8           0        2.034925    0.177165   -2.685745
     71          8           0        3.541604   -1.485212   -2.520448
     72          8           0        4.115889    0.506363   -3.364154
     73          1           0        4.910083   -0.027980   -3.433062
     74          6           0        2.973311    0.878647    2.835004
     75          8           0        2.028274    0.089104    2.674642
     76          8           0        3.057177    2.084088    2.527880
     77          8           0        4.106642    0.311614    3.402140
     78          1           0        4.734281    1.033130    3.482818
     79          1           0       -5.785182   -1.617785   -0.855023
     80          1           0       -4.218984   -1.037670   -1.358513
     81          1           0       -5.081924    2.303287    1.705878
     82          1           0       -6.411418    2.104756    0.596789
     83          1           0       -4.960043    1.215633   -1.131730
 ---------------------------------------------------------------------
 Rotational constants (GHZ):           0.1284079           0.0803616           0.0675255
 Leave Link  202 at Sat Mar 30 23:42:26 2024, MaxMem=  1879048192 cpu:               2.3 elap:               0.1
 (Enter /packages/apps/gaussian/g16/g16/l301.exe)
 Standard basis: 6-311+G(2d,2p) (5D, 7F)
 Ernie: Thresh=  0.10000D-02 Tol=  0.10000D-05 Strict=F.
 There are  1487 symmetry adapted cartesian basis functions of A   symmetry.
 There are  1413 symmetry adapted basis functions of A   symmetry.
  1413 basis functions,  2060 primitive gaussians,  1487 cartesian basis functions
   141 alpha electrons      141 beta electrons
       nuclear repulsion energy      4668.5903563052 Hartrees.
 IExCor= 4639 DFT=T Ex+Corr=wB97XD ExCW=0 ScaHFX=  1.000000
 ScaDFX=  1.000000  1.000000  1.000000  1.000000 ScalE2=  1.000000  1.000000
 IRadAn=      5 IRanWt=     -1 IRanGd=            0 ICorTp=0 IEmpDi=121
 HFx  wShort=  0.000000 wLong=  0.200000 cFull=  0.222036 cShort=  0.000000 cLong=  0.777964
 DFx  wShort=  0.000000 wLong=  0.200000 cFull=  0.000000 cShort=  0.000000 cLong=  1.000000
 NAtoms=   83 NActive=   83 NUniq=   83 SFac= 1.00D+00 NAtFMM=   60 NAOKFM=T Big=T
 Integral buffers will be    131072 words long.
 Raffenetti 2 integral format.
 Two-electron integral symmetry is turned on.
 R6Disp:  Grimme-D2 Dispersion energy=       -0.0986006890 Hartrees.
 Nuclear repulsion after empirical dispersion term =     4668.4917556162 Hartrees.
 Leave Link  301 at Sat Mar 30 23:42:27 2024, MaxMem=  1879048192 cpu:               3.6 elap:               0.2
 (Enter /packages/apps/gaussian/g16/g16/l302.exe)
 NPDir=0 NMtPBC=     1 NCelOv=     1 NCel=       1 NClECP=     1 NCelD=      1
         NCelK=      1 NCelE2=     1 NClLst=     1 CellRange=     0.0.
 One-electron integrals computed using PRISM.
 One-electron integral symmetry used in STVInt
 NBasis=  1413 RedAO= T EigKep=  1.09D-06  NBF=  1413
 NBsUse=  1403 1.00D-06 EigRej=  7.97D-07 NBFU=  1403
 Precomputing XC quadrature grid using
 IXCGrd= 4 IRadAn=           5 IRanWt=          -1 IRanGd=           0 AccXCQ= 0.00D+00.
 Generated NRdTot=       0 NPtTot=           0 NUsed=           0 NTot=          32
 NSgBfM=  1422  1401  1414  1418  1422 MxSgAt=    83 MxSgA2=    83.
 Leave Link  302 at Sat Mar 30 23:42:31 2024, MaxMem=  1879048192 cpu:             152.3 elap:               4.2
 (Enter /packages/apps/gaussian/g16/g16/l303.exe)
 DipDrv:  MaxL=1.
 Leave Link  303 at Sat Mar 30 23:42:32 2024, MaxMem=  1879048192 cpu:              10.7 elap:               0.6
 (Enter /packages/apps/gaussian/g16/g16/l401.exe)
 Initial guess from the checkpoint file:  "dry-v2-ofreq.chk"
 B after Tr=    -0.000000   -0.000000   -0.000000
         Rot=    1.000000   -0.000000   -0.000000    0.000000 Ang=   0.00 deg.
 Guess basis will be translated and rotated to current coordinates.
 JPrj=2 DoOrth=T DoCkMO=T.
 Leave Link  401 at Sat Mar 30 23:42:42 2024, MaxMem=  1879048192 cpu:             249.8 elap:               8.9
 (Enter /packages/apps/gaussian/g16/g16/l502.exe)
 Integral symmetry usage will be decided dynamically.
 Closed shell SCF:
 Using DIIS extrapolation, IDIIS=  1040.
 NGot=  1879048192 LenX=  1874552805 LenY=  1872340149
 Requested convergence on RMS density matrix=1.00D-08 within 128 cycles.
 Requested convergence on MAX density matrix=1.00D-06.
 Requested convergence on             energy=1.00D-06.
 No special actions if energy rises.
 Fock matrices will be formed incrementally for  20 cycles.

 Cycle   1  Pass 1  IDiag  1:
 FoFJK:  IHMeth= 1 ICntrl=       0 DoSepK=T KAlg= 0 I1Cent=           0 FoldK=F
 IRaf=         1 NMat=       1 IRICut=       1 DoRegI=T DoRafI=F ISym2E= 0 IDoP0=0 IntGTp=1.
 FoFCou: FMM=T IPFlag=           0 FMFlag=      100000 FMFlg1=        2001
         NFxFlg=           0 DoJE=T BraDBF=F KetDBF=F FulRan=T
         wScrn=  0.000000 ICntrl=       500 IOpCl=  0 I1Cent=           0 NGrid=           0
         NMat0=    1 NMatS0=      1 NMatT0=    0 NMatD0=    1 NMtDS0=    0 NMtDT0=    0
 Symmetry not used in FoFCou.
 FMM levels:  10  Number of levels for PrismC:   9
 E= -1693.71459993342    
 DIIS: error= 2.42D-08 at cycle   1 NSaved=   1.
 NSaved= 1 IEnMin= 1 EnMin= -1693.71459993342     IErMin= 1 ErrMin= 2.42D-08
 ErrMax= 2.42D-08  0.00D+00 EMaxC= 1.00D-01 BMatC= 9.69D-12 BMatP= 9.69D-12
 IDIUse=1 WtCom= 1.00D+00 WtEn= 0.00D+00
 Coeff-Com:  0.100D+01
 Coeff:      0.100D+01
 Gap=     0.339 Goal=   None    Shift=    0.000
 RMSDP=2.02D-08 MaxDP=2.42D-06              OVMax= 3.07D-07

 Cycle   2  Pass 1  IDiag  1:
 RMSU=  1.95D-08    CP:  1.00D+00
 E= -1693.71459993346     Delta-E=       -0.000000000035 Rises=F Damp=F
 DIIS: error= 8.39D-09 at cycle   2 NSaved=   2.
 NSaved= 2 IEnMin= 2 EnMin= -1693.71459993346     IErMin= 2 ErrMin= 8.39D-09
 ErrMax= 8.39D-09  0.00D+00 EMaxC= 1.00D-01 BMatC= 5.13D-13 BMatP= 9.69D-12
 IDIUse=1 WtCom= 1.00D+00 WtEn= 0.00D+00
 Coeff-Com:  0.226D-01 0.977D+00
 Coeff:      0.226D-01 0.977D+00
 Gap=     0.339 Goal=   None    Shift=    0.000
 RMSDP=3.41D-09 MaxDP=4.86D-07 DE=-3.55D-11 OVMax= 2.25D-07

 SCF Done:  E(RwB97XD) =  -1693.71459993     A.U. after    2 cycles
            NFock=  2  Conv=0.34D-08     -V/T= 2.0040
 KE= 1.686964045689D+03 PE=-1.328754020194D+04 EE= 5.238369800704D+03
 Leave Link  502 at Sat Mar 30 23:44:36 2024, MaxMem=  1879048192 cpu:            4362.0 elap:             114.0
 (Enter /packages/apps/gaussian/g16/g16/l601.exe)
 Copying SCF densities to generalized density rwf, IOpCl= 0 IROHF=0.

 **********************************************************************

            Population analysis using the SCF density.

 **********************************************************************

 Orbital symmetries:
       Occupied  (A) (A) (A) (A) (A) (A) (A) (A) (A) (A) (A) (A)
                 (A) (A) (A) (A) (A) (A) (A) (A) (A) (A) (A) (A)
                 (A) (A) (A) (A) (A) (A) (A) (A) (A) (A) (A) (A)
                 (A) (A) (A) (A) (A) (A) (A) (A) (A) (A) (A) (A)
                 (A) (A) (A) (A) (A) (A) (A) (A) (A) (A) (A) (A)
                 (A) (A) (A) (A) (A) (A) (A) (A) (A) (A) (A) (A)
                 (A) (A) (A) (A) (A) (A) (A) (A) (A) (A) (A) (A)
                 (A) (A) (A) (A) (A) (A) (A) (A) (A) (A) (A) (A)
                 (A) (A) (A) (A) (A) (A) (A) (A) (A) (A) (A) (A)
                 (A) (A) (A) (A) (A) (A) (A) (A) (A) (A) (A) (A)
                 (A) (A) (A) (A) (A) (A) (A) (A) (A) (A) (A) (A)
                 (A) (A) (A) (A) (A) (A) (A) (A) (A)
       Virtual   (A) (A) (A) (A) (A) (A) (A) (A) (A) (A) (A) (A)
                 (A) (A) (A) (A) (A) (A) (A) (A) (A) (A) (A) (A)
                 (A) (A) (A) (A) (A) (A) (A) (A) (A) (A) (A) (A)
                 (A) (A) (A) (A) (A) (A) (A) (A) (A) (A) (A) (A)
                 (A) (A) (A) (A) (A) (A) (A) (A) (A) (A) (A) (A)
                 (A) (A) (A) (A) (A) (A) (A) (A) (A) (A) (A) (A)
                 (A) (A) (A) (A) (A) (A) (A) (A) (A) (A) (A) (A)
                 (A) (A) (A) (A) (A) (A) (A) (A) (A) (A) (A) (A)
                 (A) (A) (A) (A) (A) (A) (A) (A) (A) (A) (A) (A)
                 (A) (A) (A) (A) (A) (A) (A) (A) (A) (A) (A) (A)
                 (A) (A) (A) (A) (A) (A) (A) (A) (A) (A) (A) (A)
                 (A) (A) (A) (A) (A) (A) (A) (A) (A) (A) (A) (A)
                 (A) (A) (A) (A) (A) (A) (A) (A) (A) (A) (A) (A)
                 (A) (A) (A) (A) (A) (A) (A) (A) (A) (A) (A) (A)
                 (A) (A) (A) (A) (A) (A) (A) (A) (A) (A) (A) (A)
                 (A) (A) (A) (A) (A) (A) (A) (A) (A) (A) (A) (A)
                 (A) (A) (A) (A) (A) (A) (A) (A) (A) (A) (A) (A)
                 (A) (A) (A) (A) (A) (A) (A) (A) (A) (A) (A) (A)
                 (A) (A) (A) (A) (A) (A) (A) (A) (A) (A) (A) (A)
                 (A) (A) (A) (A) (A) (A) (A) (A) (A) (A) (A) (A)
                 (A) (A) (A) (A) (A) (A) (A) (A) (A) (A) (A) (A)
                 (A) (A) (A) (A) (A) (A) (A) (A) (A) (A) (A) (A)
                 (A) (A) (A) (A) (A) (A) (A) (A) (A) (A) (A) (A)
                 (A) (A) (A) (A) (A) (A) (A) (A) (A) (A) (A) (A)
                 (A) (A) (A) (A) (A) (A) (A) (A) (A) (A) (A) (A)
                 (A) (A) (A) (A) (A) (A) (A) (A) (A) (A) (A) (A)
                 (A) (A) (A) (A) (A) (A) (A) (A) (A) (A) (A) (A)
                 (A) (A) (A) (A) (A) (A) (A) (A) (A) (A) (A) (A)
                 (A) (A) (A) (A) (A) (A) (A) (A) (A) (A) (A) (A)
                 (A) (A) (A) (A) (A) (A) (A) (A) (A) (A) (A) (A)
                 (A) (A) (A) (A) (A) (A) (A) (A) (A) (A) (A) (A)
                 (A) (A) (A) (A) (A) (A) (A) (A) (A) (A) (A) (A)
                 (A) (A) (A) (A) (A) (A) (A) (A) (A) (A) (A) (A)
                 (A) (A) (A) (A) (A) (A) (A) (A) (A) (A) (A) (A)
                 (A) (A) (A) (A) (A) (A) (A) (A) (A) (A) (A) (A)
                 (A) (A) (A) (A) (A) (A) (A) (A) (A) (A) (A) (A)
                 (A) (A) (A) (A) (A) (A) (A) (A) (A) (A) (A) (A)
                 (A) (A) (A) (A) (A) (A) (A) (A) (A) (A) (A) (A)
                 (A) (A) (A) (A) (A) (A) (A) (A) (A) (A) (A) (A)
                 (A) (A) (A) (A) (A) (A) (A) (A) (A) (A) (A) (A)
                 (A) (A) (A) (A) (A) (A) (A) (A) (A) (A) (A) (A)
                 (A) (A) (A) (A) (A) (A) (A) (A) (A) (A) (A) (A)
                 (A) (A) (A) (A) (A) (A) (A) (A) (A) (A) (A) (A)
                 (A) (A) (A) (A) (A) (A) (A) (A) (A) (A) (A) (A)
                 (A) (A) (A) (A) (A) (A) (A) (A) (A) (A) (A) (A)
                 (A) (A) (A) (A) (A) (A) (A) (A) (A) (A) (A) (A)
                 (A) (A) (A) (A) (A) (A) (A) (A) (A) (A) (A) (A)
                 (A) (A) (A) (A) (A) (A) (A) (A) (A) (A) (A) (A)
                 (A) (A) (A) (A) (A) (A) (A) (A) (A) (A) (A) (A)
                 (A) (A) (A) (A) (A) (A) (A) (A) (A) (A) (A) (A)
                 (A) (A) (A) (A) (A) (A) (A) (A) (A) (A) (A) (A)
                 (A) (A) (A) (A) (A) (A) (A) (A) (A) (A) (A) (A)
                 (A) (A) (A) (A) (A) (A) (A) (A) (A) (A) (A) (A)
                 (A) (A) (A) (A) (A) (A) (A) (A) (A) (A) (A) (A)
                 (A) (A) (A) (A) (A) (A) (A) (A) (A) (A) (A) (A)
                 (A) (A) (A) (A) (A) (A) (A) (A) (A) (A) (A) (A)
                 (A) (A) (A) (A) (A) (A) (A) (A) (A) (A) (A) (A)
                 (A) (A) (A) (A) (A) (A) (A) (A) (A) (A) (A) (A)
                 (A) (A) (A) (A) (A) (A) (A) (A) (A) (A) (A) (A)
                 (A) (A) (A) (A) (A) (A) (A) (A) (A) (A) (A) (A)
                 (A) (A) (A) (A) (A) (A) (A) (A) (A) (A) (A) (A)
                 (A) (A) (A) (A) (A) (A) (A) (A) (A) (A) (A) (A)
                 (A) (A) (A) (A) (A) (A) (A) (A) (A) (A) (A) (A)
                 (A) (A) (A) (A) (A) (A) (A) (A) (A) (A) (A) (A)
                 (A) (A) (A) (A) (A) (A) (A) (A) (A) (A) (A) (A)
                 (A) (A) (A) (A) (A) (A) (A) (A) (A) (A) (A) (A)
                 (A) (A) (A) (A) (A) (A) (A) (A) (A) (A) (A) (A)
                 (A) (A) (A) (A) (A) (A) (A) (A) (A) (A) (A) (A)
                 (A) (A) (A) (A) (A) (A) (A) (A) (A) (A) (A) (A)
                 (A) (A) (A) (A) (A) (A) (A) (A) (A) (A) (A) (A)
                 (A) (A) (A) (A) (A) (A) (A) (A) (A) (A) (A) (A)
                 (A) (A) (A) (A) (A) (A) (A) (A) (A) (A) (A) (A)
                 (A) (A) (A) (A) (A) (A) (A) (A) (A) (A) (A) (A)
                 (A) (A) (A) (A) (A) (A) (A) (A) (A) (A) (A) (A)
                 (A) (A) (A) (A) (A) (A) (A) (A) (A) (A) (A) (A)
                 (A) (A) (A) (A) (A) (A) (A) (A) (A) (A) (A) (A)
                 (A) (A) (A) (A) (A) (A) (A) (A) (A) (A) (A) (A)
                 (A) (A) (A) (A) (A) (A) (A) (A) (A) (A) (A) (A)
                 (A) (A) (A) (A) (A) (A) (A) (A) (A) (A) (A) (A)
                 (A) (A) (A) (A) (A) (A) (A) (A) (A) (A) (A) (A)
                 (A) (A) (A) (A) (A) (A) (A) (A) (A) (A) (A) (A)
                 (A) (A) (A) (A) (A) (A) (A) (A) (A) (A) (A) (A)
                 (A) (A) (A) (A) (A) (A) (A) (A) (A) (A) (A) (A)
                 (A) (A) (A) (A) (A) (A) (A) (A) (A) (A) (A) (A)
                 (A) (A) (A) (A) (A) (A) (A) (A) (A) (A) (A) (A)
                 (A) (A) (A) (A) (A) (A) (A) (A) (A) (A) (A) (A)
                 (A) (A) (A) (A) (A) (A) (A) (A) (A) (A) (A) (A)
                 (A) (A) (A) (A) (A) (A) (A) (A) (A) (A) (A) (A)
                 (A) (A) (A) (A) (A) (A) (A) (A) (A) (A) (A) (A)
                 (A) (A) (A) (A) (A) (A) (A) (A) (A) (A) (A) (A)
                 (A) (A) (A) (A) (A) (A) (A) (A) (A) (A) (A) (A)
                 (A) (A) (A) (A) (A) (A) (A) (A) (A) (A) (A) (A)
                 (A) (A) (A) (A) (A) (A) (A) (A) (A) (A) (A) (A)
                 (A) (A) (A) (A) (A) (A) (A) (A) (A) (A) (A) (A)
                 (A) (A) (A) (A) (A) (A) (A) (A) (A) (A) (A) (A)
                 (A) (A) (A) (A) (A) (A) (A) (A) (A) (A) (A) (A)
                 (A) (A) (A) (A) (A) (A) (A) (A) (A) (A) (A) (A)
                 (A) (A) (A) (A) (A) (A) (A) (A) (A) (A) (A) (A)
                 (A) (A) (A) (A) (A) (A) (A) (A) (A) (A) (A) (A)
                 (A) (A) (A) (A) (A) (A) (A) (A) (A) (A) (A) (A)
                 (A) (A) (A) (A) (A) (A) (A) (A) (A) (A) (A) (A)
                 (A) (A) (A) (A) (A) (A) (A) (A) (A) (A) (A) (A)
                 (A) (A) (A) (A) (A) (A) (A) (A) (A) (A) (A) (A)
                 (A) (A) (A) (A) (A) (A) (A) (A) (A) (A) (A) (A)
                 (A) (A) (A) (A) (A) (A) (A) (A) (A) (A) (A) (A)
                 (A) (A)
 The electronic state is 1-A.
 Alpha  occ. eigenvalues --  -19.23806 -19.23795 -19.16927 -19.16905 -19.16894
 Alpha  occ. eigenvalues --  -19.16865 -14.56306 -14.56303 -10.38887 -10.38860
 Alpha  occ. eigenvalues --  -10.33130 -10.33120 -10.32962 -10.32941 -10.32245
 Alpha  occ. eigenvalues --  -10.32233 -10.31548 -10.31520 -10.29518 -10.29508
 Alpha  occ. eigenvalues --  -10.29469 -10.29375 -10.29362 -10.29244 -10.28618
 Alpha  occ. eigenvalues --  -10.28612 -10.28465 -10.28435 -10.28384 -10.28372
 Alpha  occ. eigenvalues --  -10.28367 -10.28358 -10.28082 -10.28077 -10.28034
 Alpha  occ. eigenvalues --  -10.27384 -10.26857  -1.16846  -1.16818  -1.12553
 Alpha  occ. eigenvalues --   -1.12539  -1.06350  -1.06327  -1.03409  -1.03390
 Alpha  occ. eigenvalues --   -0.97537  -0.97012  -0.93237  -0.91350  -0.87851
 Alpha  occ. eigenvalues --   -0.86902  -0.85617  -0.85560  -0.84891  -0.84847
 Alpha  occ. eigenvalues --   -0.84767  -0.84702  -0.84138  -0.81516  -0.80489
 Alpha  occ. eigenvalues --   -0.77581  -0.73799  -0.72725  -0.71365  -0.71213
 Alpha  occ. eigenvalues --   -0.70827  -0.69412  -0.68710  -0.66127  -0.65809
 Alpha  occ. eigenvalues --   -0.64871  -0.64773  -0.62316  -0.61854  -0.61673
 Alpha  occ. eigenvalues --   -0.61651  -0.61321  -0.60938  -0.58850  -0.58379
 Alpha  occ. eigenvalues --   -0.56672  -0.56235  -0.55399  -0.54389  -0.54102
 Alpha  occ. eigenvalues --   -0.53963  -0.53739  -0.53484  -0.53053  -0.52711
 Alpha  occ. eigenvalues --   -0.52663  -0.52523  -0.52059  -0.51837  -0.51777
 Alpha  occ. eigenvalues --   -0.51503  -0.51196  -0.50850  -0.50751  -0.50288
 Alpha  occ. eigenvalues --   -0.50086  -0.49096  -0.48920  -0.48873  -0.48779
 Alpha  occ. eigenvalues --   -0.48508  -0.48475  -0.48371  -0.48231  -0.48059
 Alpha  occ. eigenvalues --   -0.47783  -0.46745  -0.46318  -0.46274  -0.45885
 Alpha  occ. eigenvalues --   -0.45553  -0.45324  -0.44856  -0.44532  -0.44097
 Alpha  occ. eigenvalues --   -0.43343  -0.43055  -0.42727  -0.42102  -0.41202
 Alpha  occ. eigenvalues --   -0.40711  -0.40242  -0.39646  -0.39464  -0.36666
 Alpha  occ. eigenvalues --   -0.36582  -0.34184  -0.34000  -0.33873  -0.33083
 Alpha  occ. eigenvalues --   -0.32393  -0.32294  -0.32077  -0.31148  -0.30357
 Alpha  occ. eigenvalues --   -0.30306
[...]
 21,-0.00000772,-0.00001653,-0.00001304,0.00003434,0.00002463,-0.000008
 24,0.00000650,-0.00001207,-0.00000181,0.00000976,-0.00001642,0.0000127
 5,0.00027169,0.00263133,0.00244543,-0.00083066,-0.00009339,-0.00047720
 ,0.00013286,-0.00004442,0.00013447,-0.00017368,-0.00013705,0.00027725,
 0.00000418,0.00007267,0.00004324,0.00012364,0.00007909,0.00004107,0.00
 018392,-0.00011059,0.00016016,-0.00014096,0.00003603,0.00010341,-0.000
 07350,-0.00002690,0.00000168,-0.00002247,-0.00001092,-0.00001478,0.000
 18727,0.00010599,-0.00001852,-0.00001004,-0.00002947,0.00003019,-0.000
 01524,-0.00004486,-0.00002164,0.00000155,-0.00002740,0.00000350,0.0000
 0760,-0.00001214,0.00000010,0.00001237,-0.00001763,0.00000571,0.000049
 18,-0.00003041,0.00000453,-0.00001566,-0.00000335,0.00000161,0.0000016
 0,0.00000038,0.00000890,0.00000153,-0.00000240,-0.00000659,0.00001161,
 0.00000595,0.00001781,0.00000246,0.00002698,-0.00000611,0.00001341,-0.
 00000125,0.00001071,-0.00001277,-0.00000786,0.00000584,0.00000748,-0.0
 0000908,-0.00001864,0.00001592,-0.00000775,-0.00001102,-0.00000068,0.0
 0002939,-0.00000834,-0.00001664,-0.00000970,-0.00000182,0.00000117,-0.
 00000508,-0.00000142,-0.00000084,0.00000607,-0.00000155,0.00000452,-0.
 00000480,0.00000434,0.00000412,-0.00000440,0.00000159,-0.00000561,-0.0
 0000099,0.00000842,0.00000152,-0.00001205,0.00000007,0.00000231,-0.000
 00175,0.00000160,-0.00000386,0.00000258,-0.00000059,-0.00000404,-0.000
 00703,-0.00000901,0.00000242,-0.00000183,0.00000050,-0.00000018,-0.000
 00720,0.00000322,-0.00000331,0.00000295,-0.00000107,-0.00010898,-0.000
 05200,0.00002017,0.00000757,0.00002021,-0.00000171,0.00018318,-0.00012
 108,-0.00001576,-0.00014107,0.00010250,0.00006411,-0.00005947,0.000095
 41,-0.00001552,-0.00005230,0.00000036,0.00002772,0.00000563,-0.0000020
 7,-0.00000649,0.00010096,-0.00009127,0.00007007,-0.00004837,0.00004963
 ,-0.00003601,-0.00005060,0.00005889,-0.00006539,-0.00007509,0.00004225
 ,-0.00004144,0.00001187,-0.00000439,0.00001023,0.00003102,0.00009498,0
 .00005256,0.00003083,-0.00010152,-0.00013565,-0.00830414,-0.00128803,-
 0.00098076,0.32146865,-0.00002708,0.00002496,-0.00001393,0.00002034,0.
 00003737,0.00004774,0.00000069,0.00002107,0.00000357,-0.00000546,-0.00
 000862,-0.00000274,0.00000254,-0.00000260,0.00000391,-0.00025019,0.000
 10291,-0.00003373,0.00000580,-0.00000912,0.00000193,0.00212086,0.00105
 412,-0.00027025,-0.00034396,-0.00074444,0.00030852,-0.00007393,-0.0000
 6169,-0.00008887,0.02433126,0.00158914,0.00171251,-0.05098621,-0.05622
 584,-0.00279926,-0.03151757,-0.00857832,-0.00174963,0.00026501,0.00081
 531,-0.00077596,-0.00065962,-0.00567417,0.00298312,0.00055652,0.001249
 30,0.00006844,0.00005979,0.00002068,0.00000486,-0.00001569,-0.00000536
 ,0.00000732,-0.00001397,-0.00000314,-0.00001576,-0.00000260,-0.0000022
 8,0.00000608,0.00000444,0.00000300,-0.00000508,-0.00000021,-0.00000487
 ,-0.00000074,0.00000344,0.00000342,0.00000865,-0.00001880,-0.00000624,
 0.00000468,-0.00000379,0.00000378,0.00000117,-0.00000377,0.00000457,-0
 .00000438,0.00128903,-0.00365793,-0.00247996,0.00100433,0.00030345,0.0
 0026787,0.00011835,0.00018060,-0.00030733,0.00006872,0.00016323,-0.000
 31466,-0.00002476,-0.00011613,-0.00002528,-0.00002805,0.00004496,0.000
 02031,-0.00015013,-0.00004158,0.00009890,0.00017539,-0.00001879,-0.000
 02942,0.00008685,0.00000599,-0.00000114,0.00003418,-0.00000838,0.00001
 899,-0.00013937,-0.00007465,0.00003188,0.00001415,0.00001477,-0.000012
 73,0.00000816,0.00001998,0.00000436,0.00000633,0.00000716,0.00000028,-
 0.00000369,0.00000457,-0.00000064,-0.00000652,0.00000584,-0.00000324,-
 0.00000936,0.00002353,-0.00000252,0.00001104,0.00000123,-0.00000160,-0
 .00000204,-0.00000215,-0.00000225,-0.00000314,-0.00000003,0.00000225,0
 .00002777,-0.00001216,-0.00002782,0.00000522,-0.00002399,0.00000397,-0
 .00000626,-0.00000206,0.00000307,0.00000849,0.00000605,0.00000028,0.00
 001947,0.00000970,0.00001959,-0.00001202,-0.00000262,0.00000126,0.0000
 0243,-0.00002458,-0.00000022,0.00001049,0.00000454,-0.00000269,0.00000
 053,0.00000187,0.00000023,-0.00000031,-0.00000134,0.00000028,-0.000001
 14,0.00000099,-0.00000128,-0.00000113,0.00000065,-0.00000059,0.0000022
 0,0.00000048,-0.00000170,0.00000002,0.00000230,0.00000004,-0.00000006,
 -0.00000055,-0.00000002,0.00000016,-0.00000054,0.00000043,0.00000186,0
 .00000110,0.00000166,-0.00000011,-0.00000031,0.00000019,0.00000033,0.0
 0000176,-0.00000098,0.00000025,-0.00000076,-0.00000016,0.00004396,0.00
 004609,-0.00001362,-0.00000657,-0.00000402,-0.00000044,-0.00005241,0.0
 0002899,0.00000474,0.00004429,-0.00002497,-0.00002064,0.00001532,-0.00
 002347,0.00000487,0.00001680,0.00000317,-0.00000687,-0.00000074,0.0000
 0037,0.00000090,-0.00002765,0.00000049,-0.00001380,0.00001673,-0.00000
 465,0.00001299,0.00001190,0.00000599,0.00001602,0.00001375,-0.00000459
 ,0.00000652,-0.00000116,-0.00000023,-0.00000184,-0.00002469,-0.0000408
 8,-0.00003124,-0.00001674,0.00008850,0.00004249,0.00035104,-0.00053283
 ,-0.00007694,0.05419631,0.06918269,-0.00001494,0.00001334,-0.00000946,
 -0.00000288,0.00002445,0.00002858,-0.00000005,0.00000866,0.00000279,0.
 00000022,-0.00000320,0.00000401,0.00000436,-0.00000161,-0.00000153,0.0
 0001590,0.00017583,-0.00017023,-0.00000557,0.00000489,-0.00000944,-0.0
 0048432,0.00092322,-0.00000850,-0.00021662,0.00031584,0.00030150,-0.00
 006341,0.00005807,0.00007207,0.01912916,0.00091668,-0.00029403,-0.0161
 8129,-0.00233893,-0.04969703,0.01337685,0.00348187,0.00051979,-0.00048
 628,-0.00063695,0.00033995,0.00075302,0.00257324,-0.00030293,0.0004151
 3,-0.00062514,0.00023648,0.00002066,0.00001216,-0.00001310,-0.00000501
 ,-0.00000308,0.00001006,-0.00000180,0.00000282,-0.00000508,-0.00000057
 ,0.00000010,0.00000297,0.00000080,0.00000091,-0.00000067,-0.00000318,-
 0.00000096,-0.00000404,-0.00000312,-0.00000596,0.00000424,-0.00000453,
 -0.00000138,-0.00000025,-0.00000011,0.00000159,0.00000097,0.00000198,-
 0.00000068,-0.00000119,0.00029137,-0.00311532,-0.00150645,0.00080740,0
 .00029022,0.00015708,-0.00022565,0.00021453,-0.00048620,-0.00008548,0.
 00014199,-0.00020698,0.00000421,-0.00008690,0.00001143,0.00007458,0.00
 021506,0.00022670,0.00028341,-0.00013109,0.00049249,0.00003821,-0.0000
 1547,0.00009901,0.00006515,-0.00000795,0.00000423,0.00002792,0.0000128
 8,-0.00000571,-0.00008113,-0.00005158,0.00005228,0.00001513,0.00000439
 ,-0.00000974,0.00000152,0.00000875,0.00000280,0.00000457,0.00000171,0.
 00000092,-0.00000131,0.00000261,-0.00000034,-0.00000223,0.00000235,-0.
 00000251,-0.00000821,0.00000620,-0.00000043,0.00000318,-0.00000056,-0.
 00000024,0.00000053,0.00000005,-0.00000258,-0.00000002,0.00000017,0.00
 000103,-0.00000001,-0.00000394,-0.00000667,-0.00000185,-0.00000051,-0.
 00000578,0.00000280,0.00000071,-0.00000234,-0.00000047,0.00000142,0.00
 000111,-0.00000195,0.00000043,0.00000486,-0.00000069,0.00000070,0.0000
 0204,-0.00000171,-0.00000162,0.00000279,0.00000117,0.00000148,-0.00000
 003,0.00000094,0.00000126,-0.00000012,-0.00000037,-0.00000045,0.000000
 19,-0.00000039,0.00000060,-0.00000055,-0.00000010,0.00000012,-0.000000
 49,0.00000057,-0.00000010,-0.00000064,0.00000065,0.00000025,-0.0000001
 0,0.00000012,-0.00000083,0.00000026,-0.00000041,0.00000004,0.00000039,
 0.00000076,0.00000024,0.00000047,0.00000002,-0.00000057,0.00000040,0.0
 0000045,0.00000088,-0.00000030,-0.00000022,-0.00000018,-0.00000011,0.0
 0002150,0.00002343,-0.00000485,-0.00000374,-0.00000110,-0.00000029,-0.
 00001901,0.00001600,0.00000038,0.00001593,-0.00001521,-0.00000982,0.00
 000556,-0.00001227,0.00000288,0.00000417,-0.00000138,-0.00000278,0.000
 00003,0.00000049,0.00000076,0.00000750,0.00001532,-0.00000322,-0.00000
 994,-0.00000631,0.00000654,-0.00000210,-0.00000843,0.00001251,-0.00000
 026,-0.00000267,0.00000004,-0.00000021,0.00000009,-0.00000105,-0.00003
 303,-0.00003958,0.00001394,0.00003788,-0.00003881,-0.00002484,-0.03172
 154,-0.00623456,-0.00197013,0.01412077,0.00321013,0.05182284,0.0000096
 7,0.00001984,-0.00003102,-0.00012511,-0.00001189,0.00016672,-0.0000032
 7,-0.00000574,0.00000619,0.00000118,-0.00000452,0.00000551,-0.00000484
 ,-0.00000046,-0.00000088,0.00093666,0.00040184,-0.00014994,0.00004051,
 -0.00004606,0.00000035,0.00294473,-0.00026683,0.00676963,-0.00000348,0
 .00039061,-0.00003645,0.00011314,-0.00106596,0.00053019,-0.07610778,0.
 00056025,-0.07590408,0.00429792,0.00177780,0.01710326,0.00017246,-0.00
 088765,0.00000658,-0.00009439,-0.00019688,0.00007795,-0.00002160,0.000
 04053,-0.00006913,0.00008296,-0.00010973,-0.00038378,-0.00003184,0.000
 00225,-0.00004043,0.00000805,-0.00001259,-0.00000220,0.00001954,0.0000
 0841,0.00003208,0.00000476,-0.00000619,0.00000325,-0.00000134,0.000016
 06,0.00000987,-0.00000928,0.00000101,0.00000557,-0.00001196,-0.0000020
 4,-0.00001095,0.00002246,0.00001418,-0.00002132,-0.00000156,-0.0000009
 5,-0.00000138,0.00000836,-0.00001504,0.00001170,-0.01450767,-0.0008006
 1,-0.03254613,0.00120699,-0.00090583,-0.00209412,-0.00606076,0.0000719
 5,0.00217999,-0.00009462,-0.00009904,0.00011959,-0.00030635,0.00054853
 ,0.00127746,0.00013450,-0.00093101,-0.00156316,0.00022173,0.00020621,-
 0.00012768,-0.00003954,0.00014389,0.00028659,0.00001476,0.00003570,0.0
 0000498,-0.00046867,-0.00008973,0.00002172,0.00019379,0.00016724,0.000
 10270,0.00002288,-0.00001922,0.00001120,-0.00004189,-0.00004747,-0.000
 02090,-0.00000723,-0.00001195,-0.00000137,0.00000460,-0.00000570,-0.00
 000380,0.00001089,-0.00001513,0.00000035,0.00002986,-0.00002613,0.0000
 1034,-0.00001355,-0.00000210,0.00000009,0.00000383,0.00000190,0.000002
 22,-0.00000018,-0.00000138,-0.00000661,0.00000171,-0.00000344,0.000016
 82,-0.00000038,0.00002711,-0.00001368,0.00001730,0.00000390,0.00000461
 ,-0.00001364,-0.00000703,0.00000628,-0.00001856,-0.00000430,-0.0000345
 6,0.00000170,-0.00000404,-0.00000508,-0.00000373,0.00001483,-0.0000141
 2,-0.00000899,-0.00000503,0.00000347,-0.00000101,-0.00000461,-0.000000
 93,0.00000023,0.00000313,-0.00000056,0.00000172,-0.00000192,-0.0000007
 6,0.00000280,-0.00000322,0.00000008,-0.00000292,-0.00000046,0.00000164
 ,0.00000053,-0.00000905,-0.00000074,0.00000069,0.00000058,0.00000033,-
 0.00000128,0.00000134,-0.00000005,-0.00000324,-0.00000467,-0.00000581,
 0.00000061,0.00000080,-0.00000054,-0.00000079,-0.00000195,0.00000030,-
 0.00000053,0.00000165,0.00000046,-0.00007636,-0.00006061,0.00001583,0.
 00000818,0.00001059,0.00000411,0.00005922,-0.00004075,-0.00000552,-0.0
 0003526,0.00004682,0.00005679,-0.00001684,0.00003172,-0.00000059,-0.00
 001451,0.00000192,0.00001389,0.00000139,-0.00000138,-0.00000485,0.0000
 7547,-0.00005160,0.00004448,-0.00004299,0.00003829,-0.00001421,-0.0000
 4129,0.00003140,-0.00003145,-0.00005002,0.00002636,-0.00002544,0.00000
 733,-0.00000248,0.00000468,-0.00020805,0.00016706,0.00002836,-0.000222
 06,0.00048883,0.00001841,-0.00097791,0.00286214,0.00199569,0.00064407,
 -0.00053565,0.00011964,0.08836804,-0.00001833,0.00004994,-0.00010729,-
 0.00002228,-0.00004048,0.00014719,-0.00000566,0.00003856,0.00001247,-0
 .00000985,-0.00001354,0.00000666,0.00000468,-0.00005588,-0.00003023,0.
 00013869,0.00113661,0.00171161,0.00002720,0.00009043,-0.00028566,0.010
 43713,-0.00530720,0.02865953,-0.00023451,0.00043558,-0.00026395,-0.001
 73021,-0.00483823,0.00263577,0.00152145,-0.04579248,0.00146375,-0.0068
 2686,-0.00203975,-0.02482808,-0.00075721,0.00136598,-0.00122600,0.0001
 0663,0.00028411,0.00032055,0.00000665,-0.00004656,0.00003817,0.0002142
 1,-0.00036279,0.00076991,0.00008397,0.00010856,-0.00008696,-0.00004780
 ,0.00002870,0.00003277,-0.00004054,-0.00001789,0.00017383,0.00006002,0
 .00000158,-0.00001229,0.00000797,-0.00001562,-0.00002365,-0.00003273,-
 0.00005027,-0.00004346,-0.00002073,0.00004082,-0.00011763,-0.00000188,
 0.00000513,-0.00004097,0.00000220,-0.00000258,0.00000029,-0.00000642,-
 0.00000644,0.00000329,-0.00366685,-0.00078265,-0.00539137,0.00073510,0
 .00007100,0.00000464,-0.00083960,0.00093438,0.00042367,-0.00002177,-0.
 00020898,0.00006070,0.00019482,0.00024932,-0.00000982,-0.00028700,-0.0
 0004180,-0.00024903,0.00018538,-0.00011421,0.00004809,0.00010063,0.000
 04330,-0.00010057,0.00000965,-0.00002421,0.00001233,-0.00008539,-0.000
 10783,0.00001769,-0.00002774,0.00002439,-0.00000713,0.00000074,-0.0000
 0428,0.00000168,0.00000037,0.00000030,0.00000145,-0.00000228,0.0000002
 3,-0.00001413,0.00000318,-0.00000132,0.00000185,-0.00000109,-0.0000036
 8,-0.00000022,0.00000028,0.00000128,0.00000158,0.00000043,-0.00000073,
 -0.00000050,0.00000138,0.,-0.00000043,0.00000009,0.00000045,-0.0000003
 9,0.00000198,-0.00000593,-0.00000107,-0.00000158,0.00000520,-0.0000065
 6,0.00000523,0.00000030,0.,-0.00000381,0.00000004,0.00000190,-0.000005
 98,-0.00000139,-0.00000080,0.00000249,0.00000106,0.00000024,-0.0000027
 9,0.00000422,-0.00000214,-0.00000209,-0.00000095,-0.00000062,-0.000002
 01,-0.00000178,-0.00000089,0.00000046,0.00000013,0.00000024,0.00000029
 ,-0.00000009,0.00000086,0.00000002,-0.00000056,-0.00000041,-0.00000180
 ,-0.00000107,0.00000109,-0.00000192,-0.00000205,-0.00000081,-0.0000011
 0,0.00000255,0.00000083,0.00000106,-0.00000023,-0.00000026,-0.00000010
 ,0.00000013,0.00000078,-0.00000018,0.00000178,0.00000016,-0.00000037,-
 0.00000031,0.00000062,0.00000087,0.00000011,0.00000054,0.00001858,0.00
 001046,0.00000382,0.00000235,0.00000122,-0.00000007,0.00000556,-0.0000
 0534,0.00000127,-0.00000692,0.00000292,0.00000007,-0.00000098,0.000003
 58,-0.00000435,-0.00000143,0.00000056,0.00000056,-0.00000024,-0.000000
 08,0.00000027,-0.00000040,-0.00001919,0.00000334,0.00000343,0.00001525
 ,0.00000149,-0.00000479,0.00001251,-0.00000104,-0.00000255,0.00000415,
 -0.00000122,0.00000103,-0.00000055,-0.00000022,-0.00023898,-0.00009150
 ,-0.00007649,0.00067140,-0.00037597,-0.00054993,0.00240250,-0.00341724
 ,-0.00253447,-0.00015670,0.00086019,0.00070712,-0.00183665,0.05796663,
 -0.00000598,0.00000515,0.00004366,-0.00025920,-0.00009609,0.00028447,0
 .00000401,-0.00001013,-0.00001019,0.00000981,0.00000578,-0.00000921,-0
 .00001403,0.00002723,0.00000411,0.00115545,-0.00200020,0.00058858,0.00
 007654,-0.00028216,0.00010435,-0.00458295,0.00224590,-0.01279120,0.000
 20642,0.00020827,-0.00027447,0.00142001,0.00177865,-0.00036223,-0.0807
 2551,0.00202009,-0.27224733,-0.00432003,-0.00138365,-0.01821076,-0.000
 20067,0.00077089,0.00081702,0.00017400,0.00009117,0.00037725,0.0000250
 9,0.00003629,0.00002650,-0.00007530,-0.00086836,0.00051678,-0.00006164
 ,-0.00001290,-0.00000899,0.00000448,-0.00001526,-0.00001692,0.00005608
 ,0.00001505,-0.00010913,-0.00001717,0.00000860,0.00001506,-0.00000595,
 0.00001384,0.00001832,0.00000690,0.00003610,0.00003912,-0.00000589,-0.
 00003291,0.00007808,0.00000834,-0.00000207,0.00000153,-0.00000244,-0.0
 0000144,0.00000041,0.00001279,-0.00000562,0.00000204,0.00078571,-0.000
 34093,-0.00066843,0.00254136,-0.00006926,0.00070683,-0.00031287,0.0000
 1851,0.00041903,-0.00052920,-0.00029176,0.00035282,-0.00025320,0.00045
 005,0.00037756,0.00049339,0.00000280,-0.00028573,0.00016718,0.00003011
 ,0.00015006,0.00009084,0.00010715,0.00046611,-0.00004827,0.00002125,-0
 .00002745,-0.00005090,0.00004436,-0.00000072,0.00005871,0.00012703,0.0
 0002004,-0.00000226,-0.00001006,0.00000335,-0.00001755,-0.00001598,-0.
 00001629,0.00000860,-0.00000987,0.00001216,0.00000028,-0.00000058,-0.0
 0000590,0.00000448,-0.00000403,-0.00000203,0.00001476,-0.00000613,0.00
 000417,-0.00000418,-0.00000318,-0.00000047,0.00000249,0.00000157,-0.00
 000188,0.00000065,-0.00000018,-0.00000371,0.00000528,-0.00000067,0.000
 00335,0.00000315,0.00001150,-0.00000748,0.00000632,0.00000215,0.000000
 59,-0.00000579,-0.00000411,0.00000140,-0.00001020,-0.00000406,-0.00001
 387,0.00000326,0.00000035,-0.00000423,-0.00000371,0.00001151,-0.000008
 94,-0.00000766,-0.00000411,-0.00000050,0.00000426,0.00000116,0.0000005
 7,-0.00000110,0.00000175,-0.00000101,0.00000070,-0.00000070,-0.0000026
 4,0.00000191,-0.00000171,-0.00000034,0.00000113,0.00000189,-0.00000084
 ,0.00000339,-0.00000373,-0.00000028,0.00000176,-0.00000406,-0.00000051
 ,-0.00000270,0.00000108,0.00000013,-0.00000090,-0.00000444,-0.00000564
 ,0.00000143,-0.00000262,-0.00000063,0.00000075,-0.00000058,-0.00000136
 ,-0.00000175,0.00000124,-0.00000091,-0.00000924,-0.00001935,0.00001841
 ,-0.00000460,0.00000658,0.00000250,0.00004771,-0.00000942,-0.00001647,
 -0.00003164,0.00002013,0.00003780,-0.00001465,0.00001033,0.00001262,-0
 .00001950,-0.00000785,0.00001664,0.00000166,0.00000004,-0.00000552,0.0
 0006202,0.00000201,0.00002141,-0.00004341,0.00000132,-0.00000172,-0.00
 002691,-0.00000179,-0.00000516,-0.00003367,0.00001171,-0.00001301,0.00
 000541,-0.00000142,0.00000069,-0.00009484,0.00055019,0.00019353,-0.000
 41325,0.00023162,0.00090788,0.00211173,-0.00235039,-0.00050599,0.00053
 816,0.00020490,0.00032898,0.08209229,-0.00125355,0.29867418\\0.0000000
 5,-0.00000017,0.00000047,-0.00000004,-0.00000022,0.00000047,0.00000013
 ,-0.00000013,0.00000043,0.00000012,-0.00000021,0.00000055,0.00000002,-
 0.00000021,0.00000037,0.00000004,-0.00000011,0.00000062,0.00000027,-0.
 00000016,0.00000043,0.00000029,-0.00000020,0.00000042,0.00000014,-0.00
 000017,0.00000060,-0.00000025,0.00000003,0.00000030,0.00000001,-0.0000
 0016,0.00000045,0.00000002,-0.00000026,0.00000042,-0.00000026,-0.00000
 008,0.00000038,-0.00000009,-0.00000022,0.00000047,-0.00000017,-0.00000
 012,0.00000032,-0.00000023,-0.00000019,0.00000048,-0.00000013,0.000000
 90,0.00000017,-0.00000007,0.00000002,-0.00000004,0.00000033,-0.0000000
 7,0.00000015,0.00000002,0.00000027,0.00000004,-0.00000020,-0.00000004,
 0.00000029,0.00000019,0.00000022,0.00000006,0.00000030,-0.00000002,0.0
 0000019,0.00000032,-0.00000013,0.00000013,-0.00000010,-0.00000005,-0.0
 0000008,0.00000035,0.00000008,0.00000003,0.00000025,0.00000054,0.00000
 051,0.00000005,0.00000065,0.00000015,-0.00000049,0.00000007,0.00000016
 ,-0.00000036,-0.00000056,-0.00000011,-0.00000021,-0.00000011,0.0000003
 2,0.00000041,-0.00000066,0.00000011,-0.00000002,-0.00000002,0.00000024
 ,-0.00000007,-0.00000014,0.00000012,-0.00000005,-0.00000015,0.00000003
 ,0.00000011,0.00000004,-0.00000001,-0.00000015,0.00000019,-0.00000017,
 0.00000007,0.00000008,-0.00000001,0.,0.00000049,-0.00000039,0.00000018
 ,0.00000010,-0.00000017,-0.00000012,-0.00000008,0.,-0.00000018,0.00000
 024,-0.00000022,-0.00000024,0.00000018,-0.00000041,-0.00000021,0.00000
 009,-0.00000043,-0.00000008,0.00000016,-0.00000045,-0.00000006,0.00000
 032,-0.00000034,-0.00000015,0.00000013,-0.00000038,-0.00000005,0.00000
 002,-0.00000012,0.00000007,0.00000013,-0.00000024,-0.00000013,0.000000
 08,-0.00000024,-0.00000031,-0.00000001,-0.00000014,-0.00000019,0.00000
 003,-0.00000030,-0.00000039,-0.00000015,0.00000004,-0.00000039,0.00000
 009,-0.00000028,-0.00000009,-0.00000006,-0.00000055,0.00000018,0.00000
 020,-0.00000042,0.00000006,0.00000025,-0.00000054,-0.00000014,0.000000
 48,-0.00000038,0.00000053,-0.00000011,-0.00000006,0.00000033,-0.000000
 12,-0.00000044,0.00000009,0.00000025,-0.00000029,0.00000036,0.00000018
 ,-0.00000028,0.00000010,0.00000020,-0.00000026,0.00000013,0.,-0.000000
 17,0.00000001,0.00000008,-0.00000028,0.00000020,0.00000011,-0.00000032
 ,-0.00000013,0.00000021,-0.00000037,0.00000010,0.00000020,-0.00000023,
 -0.00000026,-0.00000009,-0.00000044,-0.00000073,-0.00000015,-0.0000002
 7,-0.00000008,0.00000023,-0.00000025,-0.00000043,0.00000022,-0.0000004
 2,-0.00000038,0.00000014,-0.00000050,0.00000059,-0.00000015,-0.0000003
 9,0.00000056,-0.00000012,-0.00000040,-0.00000001,0.00000024,-0.0000003
 7,0.00000020,0.00000055,-0.00000027,0.00000037,0.00000022,-0.00000033,
 -0.00000008,-0.00000018,0.00000053,-0.00000003,-0.00000250,0.00000080,
 0.00000036,-0.00000023,0.00000047,-0.00000003,-0.00000019,0.00000062,-
 0.00000017,-0.00000022,0.00000047\\\@


 At the touch of love, everyone becomves a poet.
                                -- Plato
 Job cpu time:      30 days 11 hours 21 minutes  7.9 seconds.
 Elapsed time:       0 days 18 hours 39 minutes 13.6 seconds.
 File lengths (MBytes):  RWF=  38271 Int=      0 D2E=      0 Chk=    153 Scr=      1
 Normal termination of Gaussian 16 at Sun Mar 31 18:43:14 2024.
