 Entering Gaussian System, Link 0=g16
 Input=2water.gjf
 Output=2water.log
 Initial command:
 /packages/apps/gaussian/g16/g16/l1.exe "/scratch/mdturne9/3-5-ethyl/ofreq/Gau-1452083.inp" -scrdir="/scratch/mdturne9/3-5-ethyl/ofreq/"
 Entering Link 1 = /packages/apps/gaussian/g16/g16/l1.exe PID=   1452087.
  
 Copyright (c) 1988,1990,1992,1993,1995,1998,2003,2009,2016,
            Gaussian, Inc.  All Rights Reserved.
  
 This is part of the Gaussian(R) 16 program.  It is based on
 the Gaussian(R) 09 system (copyright 2009, Gaussian, Inc.),
 the Gaussian(R) 03 system (copyright 2003, Gaussian, Inc.),
 the Gaussian(R) 98 system (copyright 1998, Gaussian, Inc.),
 the Gaussian(R) 94 system (copyright 1995, Gaussian, Inc.),
 the Gaussian 92(TM) system (copyright 1992, Gaussian, Inc.),
 the Gaussian 90(TM) system (copyright 1990, Gaussian, Inc.),
 the Gaussian 88(TM) system (copyright 1988, Gaussian, Inc.),
 the Gaussian 86(TM) system (copyright 1986, Carnegie Mellon
 University), and the Gaussian 82(TM) system (copyright 1983,
 Carnegie Mellon University). Gaussian is a federally registered
 trademark of Gaussian, Inc.
  
 This software contains proprietary and confidential information,
 including trade secrets, belonging to Gaussian, Inc.
  
 This software is provided under written license and may be
 used, copied, transmitted, or stored only in accord with that
 written license.
  
 The following legend is applicable only to US Government
 contracts under FAR:
  
                    RESTRICTED RIGHTS LEGEND
  
 Use, reproduction and disclosure by the US Government is
 subject to restrictions as set forth in subparagraphs (a)
 and (c) of the Commercial Computer Software - Restricted
 Rights clause in FAR 52.227-19.
  
 Gaussian, Inc.
 340 Quinnipiac St., Bldg. 40, Wallingford CT 06492
  
  
 ---------------------------------------------------------------
 Warning -- This program may not be used in any manner that
 competes with the business of Gaussian, Inc. or will provide
 assistance to any competitor of Gaussian, Inc.  The licensee
 of this program is prohibited from giving any competitor of
 Gaussian, Inc. access to this program.  By using this program,
 the user acknowledges that Gaussian, Inc. is engaged in the
 business of creating and licensing software in the field of
 computational chemistry and represents and warrants to the
 licensee that it is not a competitor of Gaussian, Inc. and that
 it will not use this program in any manner prohibited above.
 ---------------------------------------------------------------
  

 Cite this work as:
 Gaussian 16, Revision A.03,
 M. J. Frisch, G. W. Trucks, H. B. Schlegel, G. E. Scuseria, 
 M. A. Robb, J. R. Cheeseman, G. Scalmani, V. Barone, 
 G. A. Petersson, H. Nakatsuji, X. Li, M. Caricato, A. V. Marenich, 
 J. Bloino, B. G. Janesko, R. Gomperts, B. Mennucci, H. P. Hratchian, 
 J. V. Ortiz, A. F. Izmaylov, J. L. Sonnenberg, D. Williams-Young, 
 F. Ding, F. Lipparini, F. Egidi, J. Goings, B. Peng, A. Petrone, 
 T. Henderson, D. Ranasinghe, V. G. Zakrzewski, J. Gao, N. Rega, 
 G. Zheng, W. Liang, M. Hada, M. Ehara, K. Toyota, R. Fukuda, 
 J. Hasegawa, M. Ishida, T. Nakajima, Y. Honda, O. Kitao, H. Nakai, 
 T. Vreven, K. Throssell, J. A. Montgomery, Jr., J. E. Peralta, 
 F. Ogliaro, M. J. Bearpark, J. J. Heyd, E. N. Brothers, K. N. Kudin, 
 V. N. Staroverov, T. A. Keith, R. Kobayashi, J. Normand, 
 K. Raghavachari, A. P. Rendell, J. C. Burant, S. S. Iyengar, 
 J. Tomasi, M. Cossi, J. M. Millam, M. Klene, C. Adamo, R. Cammi, 
 J. W. Ochterski, R. L. Martin, K. Morokuma, O. Farkas, 
 J. B. Foresman, and D. J. Fox, Gaussian, Inc., Wallingford CT, 2016.
 
 ******************************************
 Gaussian 16:  ES64L-G16RevA.03 25-Dec-2016
                24-Apr-2024 
 ******************************************
 %nprocshared=40
 Will use up to   40 processors via shared memory.
 %mem=17GB
 %chk=2water.chk
 ---------------------------------------------------
 #p opt freq wb97xd/6-311+g(2d,2p) geom=connectivity
 ---------------------------------------------------
 1/18=20,19=15,26=3,38=1,57=2/1,3;
 2/9=110,12=2,17=6,18=5,40=1/2;
 3/5=4,6=6,7=212,11=2,25=1,30=1,71=1,74=-58/1,2,3;
 4//1;
 5/5=2,38=5/2;
 6/7=2,8=2,9=2,10=2,28=1/1;
 7//1,2,3,16;
 1/18=20,19=15,26=3/3(2);
 2/9=110/2;
 99//99;
 2/9=110/2;
 3/5=4,6=6,7=212,11=2,25=1,30=1,71=1,74=-58/1,2,3;
 4/5=5,16=3,69=1/1;
 5/5=2,38=5/2;
 7//1,2,3,16;
 1/18=20,19=15,26=3/3(-5);
 2/9=110/2;
 6/7=2,8=2,9=2,10=2,19=2,28=1/1;
 99/9=1/99;
 Leave Link    1 at Wed Apr 24 12:48:22 2024, MaxMem=  2281701376 cpu:               5.8 elap:               0.2
 (Enter /packages/apps/gaussian/g16/g16/l101.exe)
 --------
 Required
 --------
 Symbolic Z-matrix:
 Charge =  0 Multiplicity = 1
 C                    0    -2.92229  -5.1045    1.17645  L 
 C                    0    -3.76487  -4.25101   0.23628  L 
 H                    0    -3.16142  -6.16202   1.06336  L 
 H                    0    -1.85751  -4.97638   0.98054  L 
 H                    0    -3.10146  -4.82973   2.21791  L 
 C                    0    -3.53869  -2.73786   0.39791  L 
 H                    0    -3.56186  -4.53392  -0.80069  L 
 H                    0    -4.82384  -4.45872   0.40783  L 
 C                    0    -4.47708  -1.95693  -0.54076  L 
 H                    0    -3.80735  -2.47862   1.42748  L 
 H                    0    -4.07448  -1.97352  -1.5575   L 
 H                    0    -5.43053  -2.48951  -0.58911  L 
 C                    0    -4.78868  -0.50713  -0.13329  L 
 C                    0    -5.80316   0.11327  -1.10571  L 
 H                    0    -5.26208  -0.54415   0.85362  L 
 H                    0    -5.35977   0.15556  -2.1045   L 
 H                    0    -6.66376  -0.55612  -1.18093  L 
 C                    0    -6.27224   1.50334  -0.69334  L 
 H                    0    -7.01454   1.88981  -1.39169  L 
 H                    0    -6.72567   1.48339   0.29979  L 
 H                    0    -5.43977   2.2071   -0.66289  L 
 C                    0    -3.54654   0.34676  -0.00013  L 
 C                    0    -3.2014    0.92274   1.21604  L 
 C                    0    -2.68444   0.52699  -1.07807  L 
 C                    0    -2.0165    1.62745   1.36032  L 
 H                    0    -3.84868   0.7833    2.07341  L 
 C                    0    -1.49913   1.22482  -0.93652  L 
 H                    0    -2.91133   0.06782  -2.03173  L 
 C                    0    -1.15114   1.79553   0.28587  L 
 H                    0    -1.74248   2.02518   2.32978  L 
 H                    0    -0.81285   1.28705  -1.77125  L 
 C                    0    -2.07432  -2.38663   0.21357  L 
 C                    0    -1.33224  -1.84023   1.25287  L 
 C                    0    -1.43682  -2.58755  -1.00959  L 
 C                    0     0.00385  -1.50472   1.0902   L 
 H                    0    -1.81618  -1.63773   2.1997   L 
 C                    0    -0.10417  -2.25858  -1.17915  L 
 H                    0    -1.99362  -2.9832   -1.85028  L 
 C                    0     0.64167  -1.7444   -0.12098  L 
 H                    0     0.54319  -1.01361   1.8933   L 
 H                    0     0.36329  -2.37915  -2.14871  L 
 C                    0     2.09411  -1.43229  -0.30257  L 
 H                    0     2.29009  -1.1526   -1.33262  L 
 H                    0     2.39048  -0.60146   0.32782  L 
 C                    0     0.17684   2.46407   0.47027  L 
 H                    0     0.47812   2.39434   1.51055  L 
 H                    0     0.96494   1.9872   -0.12607  L 
 C                    0     4.3776   -2.28016  -0.66937  L 
 H                    0     5.10734  -2.94765  -0.20898  L 
 C                    0     4.35375  -2.46113  -2.17431  L 
 H                    0     4.61888  -1.23378  -0.45062  L 
 C                    0     2.56978  -3.92319  -0.41283  L 
 C                    0     1.59118  -4.66372   0.48701  L 
 H                    0     2.13853  -3.77605  -1.39872  L 
 H                    0     3.46522  -4.53161  -0.53322  L 
 C                    0     3.32105  -2.60042   1.5275   L 
 C                    0     4.19092  -1.47925   2.06867  L 
 H                    0     2.34121  -2.59286   1.9997   L 
 H                    0     3.78521  -3.5657    1.73107  L 
 C                    0     1.72141   4.34552   0.26023  L 
 H                    0     1.80233   5.32269  -0.21833  L 
 C                    0     2.2454    4.39653   1.68121  L 
 H                    0     2.27884   3.59937  -0.30857  L 
 C                    0    -0.17448   4.22081  -1.30305  L 
 C                    0     0.71915   3.66918  -2.39646  L 
 H                    0    -1.17819   3.81592  -1.39647  L 
 H                    0    -0.24291   5.30625  -1.38411  L 
 C                    0    -0.57212   4.79535   1.04978  L 
 C                    0    -2.05234   4.94628   0.7327   L 
 H                    0    -0.43693   4.36745   2.03961  L 
 H                    0    -0.10728   5.78075   1.05092  L 
 N                    0     3.06339  -2.57041   0.0392   L 
 N                    0     0.25675   3.94757   0.1155   L 
 H                    0    -2.22396   5.54642  -0.15827  L 
 H                    0    -2.51002   5.47077   1.57153  L 
 H                    0    -2.5601    3.99357   0.61879  L 
 H                    0     0.19282   3.80205  -3.34181  L 
 H                    0     0.95612   2.61736  -2.26692  L 
 H                    0     1.66773   4.19632  -2.45957  L 
 H                    0     2.1588    3.43354   2.17732  L 
 H                    0     1.79131   5.1825    2.28507  L 
 H                    0     3.31289   4.59904   1.60994  L 
 H                    0     5.23773  -1.61953   1.80864  L 
 H                    0     4.10957  -1.50912   3.15579  L 
 H                    0     3.898    -0.48212   1.73079  L 
 H                    0     4.22834  -3.49604  -2.49311  L 
 H                    0     5.3185   -2.11226  -2.54047  L 
 H                    0     3.59835  -1.83429  -2.64692  L 
 H                    0     1.29187  -5.56709  -0.04493  L 
 H                    0     0.69379  -4.0936    0.70415  L 
 H                    0     2.04666  -4.97478   1.42473  L 
 C                    0     3.52601   1.267    -0.27845  L 
 O                    0     2.61113   1.67794  -1.11599  L 
 O                    0     3.3147    1.47001   0.98626  L 
 O                    0     4.54685   0.65887  -0.68774  L 
 O                    0     1.57535   0.85955   2.77011  L 
 H                    0     2.12702   0.83417   3.55038  L 
 H                    0     2.21399   1.09152   2.02482  L 
 O                    0     2.19501   0.14901  -3.1561   L 
 H                    0     2.43498   0.75815  -2.38681  L 
 H                    0     2.91682   0.26951  -3.77147  L 
 
 Add virtual bond connecting atoms H98        and O94        Dist= 2.95D+00.
 Add virtual bond connecting atoms H100       and O93        Dist= 2.98D+00.
 Add virtual bond connecting atoms O93        and H47        Dist= 3.68D+00.
 Add virtual bond connecting atoms O95        and H51        Dist= 3.61D+00.
 ITRead=  0  0  0  0  0  0  0  0  0  0  0  0  0  0  0  0  0  0  0  0
 ITRead=  0  0  0  0  0  0  0  0  0  0  0  0  0  0  0  0  0  0  0  0
 ITRead=  0  0  0  0  0  0  0  0  0  0  0  0  0  0  0  0  0  0  0  0
 ITRead=  0  0  0  0  0  0  0  0  0  0  0  0  0  0  0  0  0  0  0  0
 ITRead=  0  0  0  0  0  0  0  0  0  0  0  0  0  0  0  0  0  0  0  0
 ITRead=  0
 MicOpt= -1 -1 -1 -1 -1 -1 -1 -1 -1 -1 -1 -1 -1 -1 -1 -1 -1 -1 -1 -1
 MicOpt= -1 -1 -1 -1 -1 -1 -1 -1 -1 -1 -1 -1 -1 -1 -1 -1 -1 -1 -1 -1
 MicOpt= -1 -1 -1 -1 -1 -1 -1 -1 -1 -1 -1 -1 -1 -1 -1 -1 -1 -1 -1 -1
 MicOpt= -1 -1 -1 -1 -1 -1 -1 -1 -1 -1 -1 -1 -1 -1 -1 -1 -1 -1 -1 -1
 MicOpt= -1 -1 -1 -1 -1 -1 -1 -1 -1 -1 -1 -1 -1 -1 -1 -1 -1 -1 -1 -1
 MicOpt= -1
 NAtoms=    101 NQM=      101 NQMF=       0 NMMI=      0 NMMIF=      0
                NMic=       0 NMicF=      0.
                    Isotopes and Nuclear Properties:
 (Nuclear quadrupole moments (NQMom) in fm**2, nuclear magnetic moments (NMagM)
  in nuclear magnetons)

  Atom         1           2           3           4           5           6           7           8           9          10
 IAtWgt=          12          12           1           1           1          12           1           1          12           1
 AtmWgt=  12.0000000  12.0000000   1.0078250   1.0078250   1.0078250  12.0000000   1.0078250   1.0078250  12.0000000   1.0078250
 NucSpn=           0           0           1           1           1           0           1           1           0           1
 AtZEff=  -0.0000000  -0.0000000  -0.0000000  -0.0000000  -0.0000000  -0.0000000  -0.0000000  -0.0000000  -0.0000000  -0.0000000
 NQMom=    0.0000000   0.0000000   0.0000000   0.0000000   0.0000000   0.0000000   0.0000000   0.0000000   0.0000000   0.0000000
 NMagM=    0.0000000   0.0000000   2.7928460   2.7928460   2.7928460   0.0000000   2.7928460   2.7928460   0.0000000   2.7928460
 AtZNuc=   6.0000000   6.0000000   1.0000000   1.0000000   1.0000000   6.0000000   1.0000000   1.0000000   6.0000000   1.0000000

  Atom        11          12          13          14          15          16          17          18          19          20
 IAtWgt=           1           1          12          12           1           1           1          12           1           1
 AtmWgt=   1.0078250   1.0078250  12.0000000  12.0000000   1.0078250   1.0078250   1.0078250  12.0000000   1.0078250   1.0078250
 NucSpn=           1           1           0           0           1           1           1           0           1           1
 AtZEff=  -0.0000000  -0.0000000  -0.0000000  -0.0000000  -0.0000000  -0.0000000  -0.0000000  -0.0000000  -0.0000000  -0.0000000
 NQMom=    0.0000000   0.0000000   0.0000000   0.0000000   0.0000000   0.0000000   0.0000000   0.0000000   0.0000000   0.0000000
 NMagM=    2.7928460   2.7928460   0.0000000   0.0000000   2.7928460   2.7928460   2.7928460   0.0000000   2.7928460   2.7928460
 AtZNuc=   1.0000000   1.0000000   6.0000000   6.0000000   1.0000000   1.0000000   1.0000000   6.0000000   1.0000000   1.0000000

  Atom        21          22          23          24          25          26          27          28          29          30
 IAtWgt=           1          12          12          12          12           1          12           1          12           1
 AtmWgt=   1.0078250  12.0000000  12.0000000  12.0000000  12.0000000   1.0078250  12.0000000   1.0078250  12.0000000   1.0078250
 NucSpn=           1           0           0           0           0           1           0           1           0           1
 AtZEff=  -0.0000000  -0.0000000  -0.0000000  -0.0000000  -0.0000000  -0.0000000  -0.0000000  -0.0000000  -0.0000000  -0.0000000
 NQMom=    0.0000000   0.0000000   0.0000000   0.0000000   0.0000000   0.0000000   0.0000000   0.0000000   0.0000000   0.0000000
 NMagM=    2.7928460   0.0000000   0.0000000   0.0000000   0.0000000   2.7928460   0.0000000   2.7928460   0.0000000   2.7928460
 AtZNuc=   1.0000000   6.0000000   6.0000000   6.0000000   6.0000000   1.0000000   6.0000000   1.0000000   6.0000000   1.0000000

  Atom        31          32          33          34          35          36          37          38          39          40
 IAtWgt=           1          12          12          12          12           1          12           1          12           1
 AtmWgt=   1.0078250  12.0000000  12.0000000  12.0000000  12.0000000   1.0078250  12.0000000   1.0078250  12.0000000   1.0078250
 NucSpn=           1           0           0           0           0           1           0           1           0           1
 AtZEff=  -0.0000000  -0.0000000  -0.0000000  -0.0000000  -0.0000000  -0.0000000  -0.0000000  -0.0000000  -0.0000000  -0.0000000
 NQMom=    0.0000000   0.0000000   0.0000000   0.0000000   0.0000000   0.0000000   0.0000000   0.0000000   0.0000000   0.0000000
 NMagM=    2.7928460   0.0000000   0.0000000   0.0000000   0.0000000   2.7928460   0.0000000   2.7928460   0.0000000   2.7928460
 AtZNuc=   1.0000000   6.0000000   6.0000000   6.0000000   6.0000000   1.0000000   6.0000000   1.0000000   6.0000000   1.0000000

  Atom        41          42          43          44          45          46          47          48          49          50
 IAtWgt=           1          12           1           1          12           1           1          12           1          12
 AtmWgt=   1.0078250  12.0000000   1.0078250   1.0078250  12.0000000   1.0078250   1.0078250  12.0000000   1.0078250  12.0000000
 NucSpn=           1           0           1           1           0           1           1           0           1           0
 AtZEff=  -0.0000000  -0.0000000  -0.0000000  -0.0000000  -0.0000000  -0.0000000  -0.0000000  -0.0000000  -0.0000000  -0.0000000
 NQMom=    0.0000000   0.0000000   0.0000000   0.0000000   0.0000000   0.0000000   0.0000000   0.0000000   0.0000000   0.0000000
 NMagM=    2.7928460   0.0000000   2.7928460   2.7928460   0.0000000   2.7928460   2.7928460   0.0000000   2.7928460   0.0000000
 AtZNuc=   1.0000000   6.0000000   1.0000000   1.0000000   6.0000000   1.0000000   1.0000000   6.0000000   1.0000000   6.0000000

  Atom        51          52          53          54          55          56          57          58          59          60
 IAtWgt=           1          12          12           1           1          12          12           1           1          12
 AtmWgt=   1.0078250  12.0000000  12.0000000   1.0078250   1.0078250  12.0000000  12.0000000   1.0078250   1.0078250  12.0000000
 NucSpn=           1           0           0           1           1           0           0           1           1           0
 AtZEff=  -0.0000000  -0.0000000  -0.0000000  -0.0000000  -0.0000000  -0.0000000  -0.0000000  -0.0000000  -0.0000000  -0.0000000
 NQMom=    0.0000000   0.0000000   0.0000000   0.0000000   0.0000000   0.0000000   0.0000000   0.0000000   0.0000000   0.0000000
 NMagM=    2.7928460   0.0000000   0.0000000   2.7928460   2.7928460   0.0000000   0.0000000   2.7928460   2.7928460   0.0000000
 AtZNuc=   1.0000000   6.0000000   6.0000000   1.0000000   1.0000000   6.0000000   6.0000000   1.0000000   1.0000000   6.0000000

  Atom        61          62          63          64          65          66          67          68          69          70
 IAtWgt=           1          12           1          12          12           1           1          12          12           1
 AtmWgt=   1.0078250  12.0000000   1.0078250  12.0000000  12.0000000   1.0078250   1.0078250  12.0000000  12.0000000   1.0078250
 NucSpn=           1           0           1           0           0           1           1           0           0           1
 AtZEff=  -0.0000000  -0.0000000  -0.0000000  -0.0000000  -0.0000000  -0.0000000  -0.0000000  -0.0000000  -0.0000000  -0.0000000
 NQMom=    0.0000000   0.0000000   0.0000000   0.0000000   0.0000000   0.0000000   0.0000000   0.0000000   0.0000000   0.0000000
 NMagM=    2.7928460   0.0000000   2.7928460   0.0000000   0.0000000   2.7928460   2.7928460   0.0000000   0.0000000   2.7928460
 AtZNuc=   1.0000000   6.0000000   1.0000000   6.0000000   6.0000000   1.0000000   1.0000000   6.0000000   6.0000000   1.0000000

  Atom        71          72          73          74          75          76          77          78          79          80
 IAtWgt=           1          14          14           1           1           1           1           1           1           1
 AtmWgt=   1.0078250  14.0030740  14.0030740   1.0078250   1.0078250   1.0078250   1.0078250   1.0078250   1.0078250   1.0078250
 NucSpn=           1           2           2           1           1           1           1           1           1           1
 AtZEff=  -0.0000000  -0.0000000  -0.0000000  -0.0000000  -0.0000000  -0.0000000  -0.0000000  -0.0000000  -0.0000000  -0.0000000
 NQMom=    0.0000000   2.0440000   2.0440000   0.0000000   0.0000000   0.0000000   0.0000000   0.0000000   0.0000000   0.0000000
 NMagM=    2.7928460   0.4037610   0.4037610   2.7928460   2.7928460   2.7928460   2.7928460   2.7928460   2.7928460   2.7928460
 AtZNuc=   1.0000000   7.0000000   7.0000000   1.0000000   1.0000000   1.0000000   1.0000000   1.0000000   1.0000000   1.0000000

  Atom        81          82          83          84          85          86          87          88          89          90
 IAtWgt=           1           1           1           1           1           1           1           1           1           1
 AtmWgt=   1.0078250   1.0078250   1.0078250   1.0078250   1.0078250   1.0078250   1.0078250   1.0078250   1.0078250   1.0078250
 NucSpn=           1           1           1           1           1           1           1           1           1           1
 AtZEff=  -0.0000000  -0.0000000  -0.0000000  -0.0000000  -0.0000000  -0.0000000  -0.0000000  -0.0000000  -0.0000000  -0.0000000
 NQMom=    0.0000000   0.0000000   0.0000000   0.0000000   0.0000000   0.0000000   0.0000000   0.0000000   0.0000000   0.0000000
 NMagM=    2.7928460   2.7928460   2.7928460   2.7928460   2.7928460   2.7928460   2.7928460   2.7928460   2.7928460   2.7928460
 AtZNuc=   1.0000000   1.0000000   1.0000000   1.0000000   1.0000000   1.0000000   1.0000000   1.0000000   1.0000000   1.0000000

  Atom        91          92          93          94          95          96          97          98          99         100
 IAtWgt=           1          12          16          16          16          16           1           1          16           1
 AtmWgt=   1.0078250  12.0000000  15.9949146  15.9949146  15.9949146  15.9949146   1.0078250   1.0078250  15.9949146   1.0078250
 NucSpn=           1           0           0           0           0           0           1           1           0           1
 AtZEff=  -0.0000000  -0.0000000  -0.0000000  -0.0000000  -0.0000000  -0.0000000  -0.0000000  -0.0000000  -0.0000000  -0.0000000
 NQMom=    0.0000000   0.0000000   0.0000000   0.0000000   0.0000000   0.0000000   0.0000000   0.0000000   0.0000000   0.0000000
 NMagM=    2.7928460   0.0000000   0.0000000   0.0000000   0.0000000   0.0000000   2.7928460   2.7928460   0.0000000   2.7928460
 AtZNuc=   1.0000000   6.0000000   8.0000000   8.0000000   8.0000000   8.0000000   1.0000000   1.0000000   8.0000000   1.0000000

  Atom       101
 IAtWgt=           1
 AtmWgt=   1.0078250
 NucSpn=           1
 AtZEff=  -0.0000000
 NQMom=    0.0000000
 NMagM=    2.7928460
 AtZNuc=   1.0000000
 Leave Link  101 at Wed Apr 24 12:48:23 2024, MaxMem=  2281701376 cpu:              10.8 elap:               0.4
 (Enter /packages/apps/gaussian/g16/g16/l103.exe)

 GradGradGradGradGradGradGradGradGradGradGradGradGradGradGradGradGradGrad
 Berny optimization.
 Initialization pass.
                           ----------------------------
                           !    Initial Parameters    !
                           ! (Angstroms and Degrees)  !
 --------------------------                            --------------------------
 ! Name  Definition              Value          Derivative Info.                !
 --------------------------------------------------------------------------------
 ! R1    R(1,2)                  1.5239         estimate D2E/DX2                !
 ! R2    R(1,3)                  1.0901         estimate D2E/DX2                !
 ! R3    R(1,4)                  1.0902         estimate D2E/DX2                !
 ! R4    R(1,5)                  1.0919         estimate D2E/DX2                !
 ! R5    R(2,6)                  1.5385         estimate D2E/DX2                !
 ! R6    R(2,7)                  1.0939         estimate D2E/DX2                !
 ! R7    R(2,8)                  1.0927         estimate D2E/DX2                !
 ! R8    R(6,9)                  1.54           estimate D2E/DX2                !
 ! R9    R(6,10)                 1.0952         estimate D2E/DX2                !
 ! R10   R(6,32)                 1.5171         estimate D2E/DX2                !
 ! R11   R(9,11)                 1.0937         estimate D2E/DX2                !
 ! R12   R(9,12)                 1.0932         estimate D2E/DX2                !
 ! R13   R(9,13)                 1.5379         estimate D2E/DX2                !
 ! R14   R(13,14)                1.5361         estimate D2E/DX2                !
 ! R15   R(13,15)                1.0952         estimate D2E/DX2                !
 ! R16   R(13,22)                1.5132         estimate D2E/DX2                !
 ! R17   R(14,16)                1.0936         estimate D2E/DX2                !
 ! R18   R(14,17)                1.0929         estimate D2E/DX2                !
 ! R19   R(14,18)                1.5239         estimate D2E/DX2                !
 ! R20   R(18,19)                1.09           estimate D2E/DX2                !
 ! R21   R(18,20)                1.0919         estimate D2E/DX2                !
 ! R22   R(18,21)                1.0905         estimate D2E/DX2                !
 ! R23   R(22,23)                1.3892         estimate D2E/DX2                !
 ! R24   R(22,24)                1.392          estimate D2E/DX2                !
 ! R25   R(23,25)                1.3862         estimate D2E/DX2                !
 ! R26   R(23,26)                1.0833         estimate D2E/DX2                !
 ! R27   R(24,27)                1.3827         estimate D2E/DX2                !
 ! R28   R(24,28)                1.0825         estimate D2E/DX2                !
 ! R29   R(25,29)                1.3898         estimate D2E/DX2                !
 ! R30   R(25,30)                1.0831         estimate D2E/DX2                !
 ! R31   R(27,29)                1.3932         estimate D2E/DX2                !
 ! R32   R(27,31)                1.0824         estimate D2E/DX2                !
 ! R33   R(29,45)                1.4982         estimate D2E/DX2                !
 ! R34   R(32,33)                1.389          estimate D2E/DX2                !
 ! R35   R(32,34)                1.3939         estimate D2E/DX2                !
 ! R36   R(33,35)                1.3871         estimate D2E/DX2                !
 ! R37   R(33,36)                1.0824         estimate D2E/DX2                !
 ! R38   R(34,37)                1.3831         estimate D2E/DX2                !
 ! R39   R(34,38)                1.0832         estimate D2E/DX2                !
 ! R40   R(35,39)                1.3897         estimate D2E/DX2                !
 ! R41   R(35,40)                1.0849         estimate D2E/DX2                !
 ! R42   R(37,39)                1.393          estimate D2E/DX2                !
 ! R43   R(37,41)                1.0831         estimate D2E/DX2                !
 ! R44   R(39,42)                1.4967         estimate D2E/DX2                !
 ! R45   R(42,43)                1.0852         estimate D2E/DX2                !
 ! R46   R(42,44)                1.0842         estimate D2E/DX2                !
 ! R47   R(42,72)                1.5335         estimate D2E/DX2                !
 ! R48   R(45,46)                1.0853         estimate D2E/DX2                !
 ! R49   R(45,47)                1.0973         estimate D2E/DX2                !
 ! R50   R(45,73)                1.5274         estimate D2E/DX2                !
 ! R51   R(47,93)                1.9456         estimate D2E/DX2                !
 ! R52   R(48,49)                1.0909         estimate D2E/DX2                !
 ! R53   R(48,50)                1.516          estimate D2E/DX2                !
 ! R54   R(48,51)                1.0959         estimate D2E/DX2                !
 ! R55   R(48,72)                1.521          estimate D2E/DX2                !
 ! R56   R(50,86)                1.0901         estimate D2E/DX2                !
 ! R57   R(50,87)                1.0893         estimate D2E/DX2                !
 ! R58   R(50,88)                1.0895         estimate D2E/DX2                !
 ! R59   R(51,95)                1.9088         estimate D2E/DX2                !
 ! R60   R(52,53)                1.5218         estimate D2E/DX2                !
 ! R61   R(52,54)                1.0861         estimate D2E/DX2                !
 ! R62   R(52,55)                1.0893         estimate D2E/DX2                !
 ! R63   R(52,72)                1.5093         estimate D2E/DX2                !
 ! R64   R(53,89)                1.0902         estimate D2E/DX2                !
 ! R65   R(53,90)                1.0851         estimate D2E/DX2                !
 ! R66   R(53,91)                1.0879         estimate D2E/DX2                !
 ! R67   R(56,57)                1.5187         estimate D2E/DX2                !
 ! R68   R(56,58)                1.0877         estimate D2E/DX2                !
 ! R69   R(56,59)                1.0903         estimate D2E/DX2                !
 ! R70   R(56,72)                1.5107         estimate D2E/DX2                !
 ! R71   R(57,83)                1.0877         estimate D2E/DX2                !
 ! R72   R(57,84)                1.0906         estimate D2E/DX2                !
 ! R73   R(57,85)                1.0928         estimate D2E/DX2                !
 ! R74   R(60,61)                1.0911         estimate D2E/DX2                !
 ! R75   R(60,62)                1.5154         estimate D2E/DX2                !
 ! R76   R(60,63)                1.0913         estimate D2E/DX2                !
 ! R77   R(60,73)                1.5246         estimate D2E/DX2                !
 ! R78   R(62,80)                1.0867         estimate D2E/DX2                !
 ! R79   R(62,81)                1.0902         estimate D2E/DX2                !
 ! R80   R(62,82)                1.0889         estimate D2E/DX2                !
 ! R81   R(64,65)                1.516          estimate D2E/DX2                !
 ! R82   R(64,66)                1.0863         estimate D2E/DX2                !
 ! R83   R(64,67)                1.0906         estimate D2E/DX2                !
 ! R84   R(64,73)                1.5076         estimate D2E/DX2                !
 ! R85   R(65,77)                1.0901         estimate D2E/DX2                !
 ! R86   R(65,78)                1.0859         estimate D2E/DX2                !
 ! R87   R(65,79)                1.087          estimate D2E/DX2                !
 ! R88   R(68,69)                1.5213         estimate D2E/DX2                !
 ! R89   R(68,70)                1.0868         estimate D2E/DX2                !
 ! R90   R(68,71)                1.0895         estimate D2E/DX2                !
 ! R91   R(68,73)                1.5095         estimate D2E/DX2                !
 ! R92   R(69,74)                1.0879         estimate D2E/DX2                !
 ! R93   R(69,75)                1.09           estimate D2E/DX2                !
 ! R94   R(69,76)                1.0856         estimate D2E/DX2                !
 ! R95   R(92,93)                1.3067         estimate D2E/DX2                !
 ! R96   R(92,94)                1.2982         estimate D2E/DX2                !
 ! R97   R(92,95)                1.2568         estimate D2E/DX2                !
 ! R98   R(93,100)               1.5786         estimate D2E/DX2                !
 ! R99   R(94,98)                1.5599         estimate D2E/DX2                !
 ! R100  R(96,97)                0.9559         estimate D2E/DX2                !
 ! R101  R(96,98)                1.0085         estimate D2E/DX2                !
 ! R102  R(99,100)               1.0102         estimate D2E/DX2                !
 ! R103  R(99,101)               0.9561         estimate D2E/DX2                !
 ! A1    A(2,1,3)              110.9798         estimate D2E/DX2                !
 ! A2    A(2,1,4)              111.305          estimate D2E/DX2                !
 ! A3    A(2,1,5)              110.9023         estimate D2E/DX2                !
 ! A4    A(3,1,4)              108.0356         estimate D2E/DX2                !
 ! A5    A(3,1,5)              107.8833         estimate D2E/DX2                !
 ! A6    A(4,1,5)              107.5833         estimate D2E/DX2                !
 ! A7    A(1,2,6)              113.8754         estimate D2E/DX2                !
 ! A8    A(1,2,7)              109.7172         estimate D2E/DX2                !
 ! A9    A(1,2,8)              109.4219         estimate D2E/DX2                !
 ! A10   A(6,2,7)              109.0676         estimate D2E/DX2                !
 ! A11   A(6,2,8)              108.2371         estimate D2E/DX2                !
 ! A12   A(7,2,8)              106.2318         estimate D2E/DX2                !
 ! A13   A(2,6,9)              110.1905         estimate D2E/DX2                !
 ! A14   A(2,6,10)             107.1882         estimate D2E/DX2                !
 ! A15   A(2,6,32)             110.9062         estimate D2E/DX2                !
 ! A16   A(9,6,10)             107.6678         estimate D2E/DX2                !
 ! A17   A(9,6,32)             113.3718         estimate D2E/DX2                !
 ! A18   A(10,6,32)            107.2298         estimate D2E/DX2                !
 ! A19   A(6,9,11)             109.5509         estimate D2E/DX2                !
 ! A20   A(6,9,12)             108.1418         estimate D2E/DX2                !
 ! A21   A(6,9,13)             116.1062         estimate D2E/DX2                !
 ! A22   A(11,9,12)            105.8164         estimate D2E/DX2                !
 ! A23   A(11,9,13)            109.5854         estimate D2E/DX2                !
 ! A24   A(12,9,13)            107.1143         estimate D2E/DX2                !
 ! A25   A(9,13,14)            110.2932         estimate D2E/DX2                !
 ! A26   A(9,13,15)            107.126          estimate D2E/DX2                !
 ! A27   A(9,13,22)            112.8903         estimate D2E/DX2                !
 ! A28   A(14,13,15)           107.3758         estimate D2E/DX2                !
 ! A29   A(14,13,22)           111.7106         estimate D2E/DX2                !
 ! A30   A(15,13,22)           107.1336         estimate D2E/DX2                !
 ! A31   A(13,14,16)           109.0274         estimate D2E/DX2                !
 ! A32   A(13,14,17)           108.4362         estimate D2E/DX2                !
 ! A33   A(13,14,18)           113.6015         estimate D2E/DX2                !
 ! A34   A(16,14,17)           106.2663         estimate D2E/DX2                !
 ! A35   A(16,14,18)           109.6735         estimate D2E/DX2                !
 ! A36   A(17,14,18)           109.5685         estimate D2E/DX2                !
 ! A37   A(14,18,19)           111.0801         estimate D2E/DX2                !
 ! A38   A(14,18,20)           110.9326         estimate D2E/DX2                !
 ! A39   A(14,18,21)           111.176          estimate D2E/DX2                !
 ! A40   A(19,18,20)           107.843          estimate D2E/DX2                !
 ! A41   A(19,18,21)           107.9959         estimate D2E/DX2                !
 ! A42   A(20,18,21)           107.6616         estimate D2E/DX2                !
 ! A43   A(13,22,23)           120.993          estimate D2E/DX2                !
 ! A44   A(13,22,24)           120.8844         estimate D2E/DX2                !
 ! A45   A(23,22,24)           118.0584         estimate D2E/DX2                !
 ! A46   A(22,23,25)           120.9492         estimate D2E/DX2                !
 ! A47   A(22,23,26)           119.4093         estimate D2E/DX2                !
 ! A48   A(25,23,26)           119.5923         estimate D2E/DX2                !
 ! A49   A(22,24,27)           121.1289         estimate D2E/DX2                !
 ! A50   A(22,24,28)           119.8339         estimate D2E/DX2                !
 ! A51   A(27,24,28)           118.943          estimate D2E/DX2                !
 ! A52   A(23,25,29)           120.8813         estimate D2E/DX2                !
 ! A53   A(23,25,30)           119.7433         estimate D2E/DX2                !
 ! A54   A(29,25,30)           119.3433         estimate D2E/DX2                !
 ! A55   A(24,27,29)           120.7083         estimate D2E/DX2                !
 ! A56   A(24,27,31)           119.575          estimate D2E/DX2                !
 ! A57   A(29,27,31)           119.6502         estimate D2E/DX2                !
 ! A58   A(25,29,27)           118.245          estimate D2E/DX2                !
 ! A59   A(25,29,45)           120.7127         estimate D2E/DX2                !
 ! A60   A(27,29,45)           120.81           estimate D2E/DX2                !
 ! A61   A(6,32,33)            121.0521         estimate D2E/DX2                !
 ! A62   A(6,32,34)            120.9772         estimate D2E/DX2                !
 ! A63   A(33,32,34)           117.9662         estimate D2E/DX2                !
 ! A64   A(32,33,35)           121.4654         estimate D2E/DX2                !
 ! A65   A(32,33,36)           119.2897         estimate D2E/DX2                !
 ! A66   A(35,33,36)           119.206          estimate D2E/DX2                !
 ! A67   A(32,34,37)           120.9286         estimate D2E/DX2                !
 ! A68   A(32,34,38)           119.909          estimate D2E/DX2                !
 ! A69   A(37,34,38)           119.1443         estimate D2E/DX2                !
 ! A70   A(33,35,39)           120.1699         estimate D2E/DX2                !
 ! A71   A(33,35,40)           120.1001         estimate D2E/DX2                !
 ! A72   A(39,35,40)           119.6739         estimate D2E/DX2                !
 ! A73   A(34,37,39)           120.7019         estimate D2E/DX2                !
 ! A74   A(34,37,41)           119.9415         estimate D2E/DX2                !
 ! A75   A(39,37,41)           119.3421         estimate D2E/DX2                !
 ! A76   A(35,39,37)           118.6848         estimate D2E/DX2                !
 ! A77   A(35,39,42)           121.0101         estimate D2E/DX2                !
 ! A78   A(37,39,42)           120.2928         estimate D2E/DX2                !
 ! A79   A(39,42,43)           110.1317         estimate D2E/DX2                !
 ! A80   A(39,42,44)           110.7652         estimate D2E/DX2                !
 ! A81   A(39,42,72)           115.5686         estimate D2E/DX2                !
 ! A82   A(43,42,44)           107.7589         estimate D2E/DX2                !
 ! A83   A(43,42,72)           106.7784         estimate D2E/DX2                !
 ! A84   A(44,42,72)           105.4479         estimate D2E/DX2                !
 ! A85   A(29,45,46)           109.5959         estimate D2E/DX2                !
 ! A86   A(29,45,47)           112.0734         estimate D2E/DX2                !
 ! A87   A(29,45,73)           116.8201         estimate D2E/DX2                !
 ! A88   A(46,45,47)           107.0747         estimate D2E/DX2                !
 ! A89   A(46,45,73)           105.6957         estimate D2E/DX2                !
 ! A90   A(47,45,73)           104.9682         estimate D2E/DX2                !
 ! A91   A(45,47,93)           162.4081         estimate D2E/DX2                !
 ! A92   A(49,48,50)           110.8824         estimate D2E/DX2                !
 ! A93   A(49,48,51)           110.6534         estimate D2E/DX2                !
 ! A94   A(49,48,72)           105.3448         estimate D2E/DX2                !
 ! A95   A(50,48,51)           108.3974         estimate D2E/DX2                !
 ! A96   A(50,48,72)           115.2197         estimate D2E/DX2                !
 ! A97   A(51,48,72)           106.2269         estimate D2E/DX2                !
 ! A98   A(48,50,86)           113.9189         estimate D2E/DX2                !
 ! A99   A(48,50,87)           106.3516         estimate D2E/DX2                !
 ! A100  A(48,50,88)           111.8926         estimate D2E/DX2                !
 ! A101  A(86,50,87)           107.9173         estimate D2E/DX2                !
 ! A102  A(86,50,88)           109.8522         estimate D2E/DX2                !
 ! A103  A(87,50,88)           106.4999         estimate D2E/DX2                !
 ! A104  A(48,51,95)           156.0126         estimate D2E/DX2                !
 ! A105  A(53,52,54)           110.3245         estimate D2E/DX2                !
 ! A106  A(53,52,55)           108.795          estimate D2E/DX2                !
 ! A107  A(53,52,72)           117.9941         estimate D2E/DX2                !
 ! A108  A(54,52,55)           107.5631         estimate D2E/DX2                !
 ! A109  A(54,52,72)           106.2779         estimate D2E/DX2                !
 ! A110  A(55,52,72)           105.3609         estimate D2E/DX2                !
 ! A111  A(52,53,89)           106.9334         estimate D2E/DX2                !
 ! A112  A(52,53,90)           113.2327         estimate D2E/DX2                !
 ! A113  A(52,53,91)           112.3074         estimate D2E/DX2                !
 ! A114  A(89,53,90)           107.8149         estimate D2E/DX2                !
 ! A115  A(89,53,91)           107.3725         estimate D2E/DX2                !
 ! A116  A(90,53,91)           108.904          estimate D2E/DX2                !
 ! A117  A(57,56,58)           110.8629         estimate D2E/DX2                !
 ! A118  A(57,56,59)           110.0738         estimate D2E/DX2                !
 ! A119  A(57,56,72)           115.7254         estimate D2E/DX2                !
 ! A120  A(58,56,59)           107.9759         estimate D2E/DX2                !
 ! A121  A(58,56,72)           105.896          estimate D2E/DX2                !
 ! A122  A(59,56,72)           105.9109         estimate D2E/DX2                !
 ! A123  A(56,57,83)           111.7671         estimate D2E/DX2                !
 ! A124  A(56,57,84)           106.9934         estimate D2E/DX2                !
 ! A125  A(56,57,85)           114.1986         estimate D2E/DX2                !
 ! A126  A(83,57,84)           107.8522         estimate D2E/DX2                !
 ! A127  A(83,57,85)           107.5608         estimate D2E/DX2                !
 ! A128  A(84,57,85)           108.2523         estimate D2E/DX2                !
 ! A129  A(61,60,62)           110.8244         estimate D2E/DX2                !
 ! A130  A(61,60,63)           110.2335         estimate D2E/DX2                !
 ! A131  A(61,60,73)           105.2708         estimate D2E/DX2                !
 ! A132  A(62,60,63)           109.5795         estimate D2E/DX2                !
 ! A133  A(62,60,73)           115.4664         estimate D2E/DX2                !
 ! A134  A(63,60,73)           105.2337         estimate D2E/DX2                !
 ! A135  A(60,62,80)           111.7588         estimate D2E/DX2                !
 ! A136  A(60,62,81)           113.5549         estimate D2E/DX2                !
 ! A137  A(60,62,82)           106.4924         estimate D2E/DX2                !
 ! A138  A(80,62,81)           110.6576         estimate D2E/DX2                !
 ! A139  A(80,62,82)           105.8318         estimate D2E/DX2                !
 ! A140  A(81,62,82)           108.0895         estimate D2E/DX2                !
 ! A141  A(65,64,66)           110.3025         estimate D2E/DX2                !
 ! A142  A(65,64,67)           110.2134         estimate D2E/DX2                !
 ! A143  A(65,64,73)           116.3637         estimate D2E/DX2                !
 ! A144  A(66,64,67)           107.8534         estimate D2E/DX2                !
 ! A145  A(66,64,73)           106.1196         estimate D2E/DX2                !
 ! A146  A(67,64,73)           105.5611         estimate D2E/DX2                !
 ! A147  A(64,65,77)           107.2473         estimate D2E/DX2                !
 ! A148  A(64,65,78)           113.2674         estimate D2E/DX2                !
 ! A149  A(64,65,79)           112.3204         estimate D2E/DX2                !
 ! A150  A(77,65,78)           109.0782         estimate D2E/DX2                !
 ! A151  A(77,65,79)           108.1718         estimate D2E/DX2                !
 ! A152  A(78,65,79)           106.6309         estimate D2E/DX2                !
 ! A153  A(69,68,70)           110.4825         estimate D2E/DX2                !
 ! A154  A(69,68,71)           109.0025         estimate D2E/DX2                !
 ! A155  A(69,68,73)           117.4505         estimate D2E/DX2                !
 ! A156  A(70,68,71)           107.5821         estimate D2E/DX2                !
 ! A157  A(70,68,73)           105.9189         estimate D2E/DX2                !
 ! A158  A(71,68,73)           105.9218         estimate D2E/DX2                !
 ! A159  A(68,69,74)           112.2671         estimate D2E/DX2                !
 ! A160  A(68,69,75)           107.21           estimate D2E/DX2                !
 ! A161  A(68,69,76)           112.9488         estimate D2E/DX2                !
 ! A162  A(74,69,75)           107.3722         estimate D2E/DX2                !
 ! A163  A(74,69,76)           108.9306         estimate D2E/DX2                !
 ! A164  A(75,69,76)           107.8572         estimate D2E/DX2                !
 ! A165  A(42,72,48)           107.4989         estimate D2E/DX2                !
 ! A166  A(42,72,52)           113.0629         estimate D2E/DX2                !
 ! A167  A(42,72,56)           110.0051         estimate D2E/DX2                !
 ! A168  A(48,72,52)           108.306          estimate D2E/DX2                !
 ! A169  A(48,72,56)           108.3825         estimate D2E/DX2                !
 ! A170  A(52,72,56)           109.4523         estimate D2E/DX2                !
 ! A171  A(45,73,60)           106.3626         estimate D2E/DX2                !
 ! A172  A(45,73,64)           112.3101         estimate D2E/DX2                !
 ! A173  A(45,73,68)           111.9001         estimate D2E/DX2                !
 ! A174  A(60,73,64)           108.4689         estimate D2E/DX2                !
 ! A175  A(60,73,68)           108.7926         estimate D2E/DX2                !
 ! A176  A(64,73,68)           108.8757         estimate D2E/DX2                !
 ! A177  A(93,92,94)           117.4703         estimate D2E/DX2                !
 ! A178  A(93,92,95)           120.8079         estimate D2E/DX2                !
 ! A179  A(94,92,95)           121.6786         estimate D2E/DX2                !
 ! A180  A(47,93,92)           108.4378         estimate D2E/DX2                !
 ! A181  A(47,93,100)          114.0656         estimate D2E/DX2                !
 ! A182  A(92,93,100)          114.2605         estimate D2E/DX2                !
 ! A183  A(92,94,98)           136.5103         estimate D2E/DX2                !
 ! A184  A(51,95,92)           118.033          estimate D2E/DX2                !
 ! A185  A(97,96,98)           104.1138         estimate D2E/DX2                !
 ! A186  A(100,99,101)         103.5796         estimate D2E/DX2                !
 ! A187  L(94,98,96,11,-1)     185.7955         estimate D2E/DX2                !
 ! A188  L(93,100,99,1,-1)     173.6382         estimate D2E/DX2                !
 ! A189  L(94,98,96,11,-2)     178.6068         estimate D2E/DX2                !
 ! A190  L(93,100,99,1,-2)     175.5289         estimate D2E/DX2                !
 ! D1    D(3,1,2,6)            176.6822         estimate D2E/DX2                !
 ! D2    D(3,1,2,7)            -60.7608         estimate D2E/DX2                !
 ! D3    D(3,1,2,8)             55.4204         estimate D2E/DX2                !
 ! D4    D(4,1,2,6)            -62.9562         estimate D2E/DX2                !
 ! D5    D(4,1,2,7)             59.6007         estimate D2E/DX2                !
 ! D6    D(4,1,2,8)            175.782          estimate D2E/DX2                !
 ! D7    D(5,1,2,6)             56.7816         estimate D2E/DX2                !
 ! D8    D(5,1,2,7)            179.3385         estimate D2E/DX2                !
 ! D9    D(5,1,2,8)            -64.4802         estimate D2E/DX2                !
 ! D10   D(1,2,6,9)           -177.2962         estimate D2E/DX2                !
 ! D11   D(1,2,6,10)           -60.4089         estimate D2E/DX2                !
 ! D12   D(1,2,6,32)            56.3387         estimate D2E/DX2                !
 ! D13   D(7,2,6,9)             59.7911         estimate D2E/DX2                !
 ! D14   D(7,2,6,10)           176.6784         estimate D2E/DX2                !
 ! D15   D(7,2,6,32)           -66.574          estimate D2E/DX2                !
 ! D16   D(8,2,6,9)            -55.3774         estimate D2E/DX2                !
 ! D17   D(8,2,6,10)            61.5099         estimate D2E/DX2                !
 ! D18   D(8,2,6,32)           178.2575         estimate D2E/DX2                !
 ! D19   D(2,6,9,11)           -78.656          estimate D2E/DX2                !
 ! D20   D(2,6,9,12)            36.224          estimate D2E/DX2                !
 ! D21   D(2,6,9,13)           156.5831         estimate D2E/DX2                !
 ! D22   D(10,6,9,11)          164.7555         estimate D2E/DX2                !
 ! D23   D(10,6,9,12)          -80.3645         estimate D2E/DX2                !
 ! D24   D(10,6,9,13)           39.9946         estimate D2E/DX2                !
 ! D25   D(32,6,9,11)           46.3111         estimate D2E/DX2                !
 ! D26   D(32,6,9,12)          161.1912         estimate D2E/DX2                !
 ! D27   D(32,6,9,13)          -78.4498         estimate D2E/DX2                !
 ! D28   D(2,6,32,33)         -116.7316         estimate D2E/DX2                !
 ! D29   D(2,6,32,34)           64.057          estimate D2E/DX2                !
 ! D30   D(9,6,32,33)          118.6876         estimate D2E/DX2                !
 ! D31   D(9,6,32,34)          -60.5237         estimate D2E/DX2                !
 ! D32   D(10,6,32,33)          -0.0096         estimate D2E/DX2                !
 ! D33   D(10,6,32,34)        -179.2209         estimate D2E/DX2                !
 ! D34   D(6,9,13,14)         -176.2879         estimate D2E/DX2                !
 ! D35   D(6,9,13,15)          -59.7291         estimate D2E/DX2                !
 ! D36   D(6,9,13,22)           57.963          estimate D2E/DX2                !
 ! D37   D(11,9,13,14)          58.9689         estimate D2E/DX2                !
 ! D38   D(11,9,13,15)         175.5276         estimate D2E/DX2                !
 ! D39   D(11,9,13,22)         -66.7803         estimate D2E/DX2                !
 ! D40   D(12,9,13,14)         -55.3775         estimate D2E/DX2                !
 ! D41   D(12,9,13,15)          61.1813         estimate D2E/DX2                !
 ! D42   D(12,9,13,22)         178.8734         estimate D2E/DX2                !
 ! D43   D(9,13,14,16)         -63.1302         estimate D2E/DX2                !
 ! D44   D(9,13,14,17)          52.165          estimate D2E/DX2                !
 ! D45   D(9,13,14,18)         174.2335         estimate D2E/DX2                !
 ! D46   D(15,13,14,16)       -179.5333         estimate D2E/DX2                !
 ! D47   D(15,13,14,17)        -64.238          estimate D2E/DX2                !
 ! D48   D(15,13,14,18)         57.8305         estimate D2E/DX2                !
 ! D49   D(22,13,14,16)         63.2829         estimate D2E/DX2                !
 ! D50   D(22,13,14,17)        178.5782         estimate D2E/DX2                !
 ! D51   D(22,13,14,18)        -59.3533         estimate D2E/DX2                !
 ! D52   D(9,13,22,23)        -118.1172         estimate D2E/DX2                !
 ! D53   D(9,13,22,24)          58.9096         estimate D2E/DX2                !
 ! D54   D(14,13,22,23)        116.9003         estimate D2E/DX2                !
 ! D55   D(14,13,22,24)        -66.0729         estimate D2E/DX2                !
 ! D56   D(15,13,22,23)         -0.4295         estimate D2E/DX2                !
 ! D57   D(15,13,22,24)        176.5972         estimate D2E/DX2                !
 ! D58   D(13,14,18,19)       -178.0626         estimate D2E/DX2                !
 ! D59   D(13,14,18,20)        -58.1263         estimate D2E/DX2                !
 ! D60   D(13,14,18,21)         61.6451         estimate D2E/DX2                !
 ! D61   D(16,14,18,19)         59.6578         estimate D2E/DX2                !
 ! D62   D(16,14,18,20)        179.5942         estimate D2E/DX2                !
 ! D63   D(16,14,18,21)        -60.6344         estimate D2E/DX2                !
 ! D64   D(17,14,18,19)        -56.6242         estimate D2E/DX2                !
 ! D65   D(17,14,18,20)         63.3121         estimate D2E/DX2                !
 ! D66   D(17,14,18,21)       -176.9165         estimate D2E/DX2                !
 ! D67   D(13,22,23,25)        175.4988         estimate D2E/DX2                !
 ! D68   D(13,22,23,26)         -1.9403         estimate D2E/DX2                !
 ! D69   D(24,22,23,25)         -1.6098         estimate D2E/DX2                !
 ! D70   D(24,22,23,26)       -179.0489         estimate D2E/DX2                !
 ! D71   D(13,22,24,27)       -175.2415         estimate D2E/DX2                !
 ! D72   D(13,22,24,28)          1.192          estimate D2E/DX2                !
 ! D73   D(23,22,24,27)          1.8704         estimate D2E/DX2                !
 ! D74   D(23,22,24,28)        178.3039         estimate D2E/DX2                !
 ! D75   D(22,23,25,29)          1.0483         estimate D2E/DX2                !
 ! D76   D(22,23,25,30)       -176.8787         estimate D2E/DX2                !
 ! D77   D(26,23,25,29)        178.4827         estimate D2E/DX2                !
 ! D78   D(26,23,25,30)          0.5558         estimate D2E/DX2                !
 ! D79   D(22,24,27,29)         -1.5657         estimate D2E/DX2                !
 ! D80   D(22,24,27,31)        175.4598         estimate D2E/DX2                !
 ! D81   D(28,24,27,29)       -178.0303         estimate D2E/DX2                !
 ! D82   D(28,24,27,31)         -1.0049         estimate D2E/DX2                !
 ! D83   D(23,25,29,27)         -0.6747         estimate D2E/DX2                !
 ! D84   D(23,25,29,45)       -175.1824         estimate D2E/DX2                !
 ! D85   D(30,25,29,27)        177.2604         estimate D2E/DX2                !
 ! D86   D(30,25,29,45)          2.7527         estimate D2E/DX2                !
 ! D87   D(24,27,29,25)          0.9294         estimate D2E/DX2                !
 ! D88   D(24,27,29,45)        175.4316         estimate D2E/DX2                !
 ! D89   D(31,27,29,25)       -176.0938         estimate D2E/DX2                !
 ! D90   D(31,27,29,45)         -1.5916         estimate D2E/DX2                !
 ! D91   D(25,29,45,46)         22.6907         estimate D2E/DX2                !
 ! D92   D(25,29,45,47)        141.4211         estimate D2E/DX2                !
 ! D93   D(25,29,45,73)        -97.4258         estimate D2E/DX2                !
 ! D94   D(27,29,45,46)       -151.6755         estimate D2E/DX2                !
 ! D95   D(27,29,45,47)        -32.9452         estimate D2E/DX2                !
 ! D96   D(27,29,45,73)         88.2079         estimate D2E/DX2                !
 ! D97   D(6,32,33,35)        -179.4108         estimate D2E/DX2                !
 ! D98   D(6,32,33,36)          -1.6968         estimate D2E/DX2                !
 ! D99   D(34,32,33,35)         -0.1763         estimate D2E/DX2                !
 ! D100  D(34,32,33,36)        177.5376         estimate D2E/DX2                !
 ! D101  D(6,32,34,37)         179.5592         estimate D2E/DX2                !
 ! D102  D(6,32,34,38)           1.1192         estimate D2E/DX2                !
 ! D103  D(33,32,34,37)          0.3242         estimate D2E/DX2                !
 ! D104  D(33,32,34,38)       -178.1158         estimate D2E/DX2                !
 ! D105  D(32,33,35,39)         -1.6881         estimate D2E/DX2                !
 ! D106  D(32,33,35,40)        175.5799         estimate D2E/DX2                !
 ! D107  D(36,33,35,39)       -179.4039         estimate D2E/DX2                !
 ! D108  D(36,33,35,40)         -2.1359         estimate D2E/DX2                !
 ! D109  D(32,34,37,39)          1.3946         estimate D2E/DX2                !
 ! D110  D(32,34,37,41)       -177.2149         estimate D2E/DX2                !
 ! D111  D(38,34,37,39)        179.8464         estimate D2E/DX2                !
 ! D112  D(38,34,37,41)          1.2369         estimate D2E/DX2                !
 ! D113  D(33,35,39,37)          3.3418         estimate D2E/DX2                !
 ! D114  D(33,35,39,42)       -177.9318         estimate D2E/DX2                !
 ! D115  D(40,35,39,37)       -173.9378         estimate D2E/DX2                !
 ! D116  D(40,35,39,42)          4.7885         estimate D2E/DX2                !
 ! D117  D(34,37,39,35)         -3.2122         estimate D2E/DX2                !
 ! D118  D(34,37,39,42)        178.052          estimate D2E/DX2                !
 ! D119  D(41,37,39,35)        175.4056         estimate D2E/DX2                !
 ! D120  D(41,37,39,42)         -3.3302         estimate D2E/DX2                !
 ! D121  D(35,39,42,43)       -148.8092         estimate D2E/DX2                !
 ! D122  D(35,39,42,44)        -29.7034         estimate D2E/DX2                !
 ! D123  D(35,39,42,72)         90.1118         estimate D2E/DX2                !
 ! D124  D(37,39,42,43)         29.8968         estimate D2E/DX2                !
 ! D125  D(37,39,42,44)        149.0026         estimate D2E/DX2                !
 ! D126  D(37,39,42,72)        -91.1822         estimate D2E/DX2                !
 ! D127  D(39,42,72,48)        159.3515         estimate D2E/DX2                !
 ! D128  D(39,42,72,52)         39.8678         estimate D2E/DX2                !
 ! D129  D(39,42,72,56)        -82.8297         estimate D2E/DX2                !
 ! D130  D(43,42,72,48)         36.4795         estimate D2E/DX2                !
 ! D131  D(43,42,72,52)        -83.0042         estimate D2E/DX2                !
 ! D132  D(43,42,72,56)        154.2983         estimate D2E/DX2                !
 ! D133  D(44,42,72,48)        -77.9665         estimate D2E/DX2                !
 ! D134  D(44,42,72,52)        162.5498         estimate D2E/DX2                !
 ! D135  D(44,42,72,56)         39.8524         estimate D2E/DX2                !
 ! D136  D(29,45,47,93)        157.2072         estimate D2E/DX2                !
 ! D137  D(46,45,47,93)        -82.5837         estimate D2E/DX2                !
 ! D138  D(73,45,47,93)         29.4444         estimate D2E/DX2                !
 ! D139  D(29,45,73,60)       -174.6739         estimate D2E/DX2                !
 ! D140  D(29,45,73,64)        -56.1612         estimate D2E/DX2                !
 ! D141  D(29,45,73,68)         66.6482         estimate D2E/DX2                !
 ! D142  D(46,45,73,60)         63.1558         estimate D2E/DX2                !
 ! D143  D(46,45,73,64)       -178.3315         estimate D2E/DX2                !
 ! D144  D(46,45,73,68)        -55.5221         estimate D2E/DX2                !
 ! D145  D(47,45,73,60)        -49.8505         estimate D2E/DX2                !
 ! D146  D(47,45,73,64)         68.6623         estimate D2E/DX2                !
 ! D147  D(47,45,73,68)       -168.5284         estimate D2E/DX2                !
 ! D148  D(45,47,93,92)         87.9427         estimate D2E/DX2                !
 ! D149  D(45,47,93,100)      -143.5041         estimate D2E/DX2                !
 ! D150  D(49,48,50,86)         52.0676         estimate D2E/DX2                !
 ! D151  D(49,48,50,87)        -66.6743         estimate D2E/DX2                !
 ! D152  D(49,48,50,88)        177.4201         estimate D2E/DX2                !
 ! D153  D(51,48,50,86)        173.7182         estimate D2E/DX2                !
 ! D154  D(51,48,50,87)         54.9763         estimate D2E/DX2                !
 ! D155  D(51,48,50,88)        -60.9293         estimate D2E/DX2                !
 ! D156  D(72,48,50,86)        -67.4544         estimate D2E/DX2                !
 ! D157  D(72,48,50,87)        173.8037         estimate D2E/DX2                !
 ! D158  D(72,48,50,88)         57.8981         estimate D2E/DX2                !
 ! D159  D(49,48,51,95)        162.1606         estimate D2E/DX2                !
 ! D160  D(50,48,51,95)         40.3695         estimate D2E/DX2                !
 ! D161  D(72,48,51,95)        -83.996          estimate D2E/DX2                !
 ! D162  D(49,48,72,42)        165.7509         estimate D2E/DX2                !
 ! D163  D(49,48,72,52)        -71.7729         estimate D2E/DX2                !
 ! D164  D(49,48,72,56)         46.8849         estimate D2E/DX2                !
 ! D165  D(50,48,72,42)        -71.7141         estimate D2E/DX2                !
 ! D166  D(50,48,72,52)         50.7621         estimate D2E/DX2                !
 ! D167  D(50,48,72,56)        169.4199         estimate D2E/DX2                !
 ! D168  D(51,48,72,42)         48.3128         estimate D2E/DX2                !
 ! D169  D(51,48,72,52)        170.7889         estimate D2E/DX2                !
 ! D170  D(51,48,72,56)        -70.5533         estimate D2E/DX2                !
 ! D171  D(48,51,95,92)         76.9231         estimate D2E/DX2                !
 ! D172  D(54,52,53,89)         52.9252         estimate D2E/DX2                !
 ! D173  D(54,52,53,90)        -65.677          estimate D2E/DX2                !
 ! D174  D(54,52,53,91)        170.4594         estimate D2E/DX2                !
 ! D175  D(55,52,53,89)        -64.848          estimate D2E/DX2                !
 ! D176  D(55,52,53,90)        176.5498         estimate D2E/DX2                !
 ! D177  D(55,52,53,91)         52.6861         estimate D2E/DX2                !
 ! D178  D(72,52,53,89)        175.2969         estimate D2E/DX2                !
 ! D179  D(72,52,53,90)         56.6946         estimate D2E/DX2                !
 ! D180  D(72,52,53,91)        -67.169          estimate D2E/DX2                !
 ! D181  D(53,52,72,42)        -83.1145         estimate D2E/DX2                !
 ! D182  D(53,52,72,48)        157.8673         estimate D2E/DX2                !
 ! D183  D(53,52,72,56)         39.89           estimate D2E/DX2                !
 ! D184  D(54,52,72,42)         41.2885         estimate D2E/DX2                !
 ! D185  D(54,52,72,48)        -77.7296         estimate D2E/DX2                !
 ! D186  D(54,52,72,56)        164.293          estimate D2E/DX2                !
 ! D187  D(55,52,72,42)        155.2561         estimate D2E/DX2                !
 ! D188  D(55,52,72,48)         36.238          estimate D2E/DX2                !
 ! D189  D(55,52,72,56)        -81.7394         estimate D2E/DX2                !
 ! D190  D(58,56,57,83)        165.3437         estimate D2E/DX2                !
 ! D191  D(58,56,57,84)         47.4911         estimate D2E/DX2                !
 ! D192  D(58,56,57,85)        -72.2702         estimate D2E/DX2                !
 ! D193  D(59,56,57,83)         45.9436         estimate D2E/DX2                !
 ! D194  D(59,56,57,84)        -71.909          estimate D2E/DX2                !
 ! D195  D(59,56,57,85)        168.3297         estimate D2E/DX2                !
 ! D196  D(72,56,57,83)        -74.0599         estimate D2E/DX2                !
 ! D197  D(72,56,57,84)        168.0875         estimate D2E/DX2                !
 ! D198  D(72,56,57,85)         48.3262         estimate D2E/DX2                !
 ! D199  D(57,56,72,42)        -72.4724         estimate D2E/DX2                !
 ! D200  D(57,56,72,48)         44.7979         estimate D2E/DX2                !
 ! D201  D(57,56,72,52)        162.7275         estimate D2E/DX2                !
 ! D202  D(58,56,72,42)         50.7743         estimate D2E/DX2                !
 ! D203  D(58,56,72,48)        168.0445         estimate D2E/DX2                !
 ! D204  D(58,56,72,52)        -74.0259         estimate D2E/DX2                !
 ! D205  D(59,56,72,42)        165.2842         estimate D2E/DX2                !
 ! D206  D(59,56,72,48)        -77.4455         estimate D2E/DX2                !
 ! D207  D(59,56,72,52)         40.4841         estimate D2E/DX2                !
 ! D208  D(61,60,62,80)        179.187          estimate D2E/DX2                !
 ! D209  D(61,60,62,81)         53.1451         estimate D2E/DX2                !
 ! D210  D(61,60,62,82)        -65.6927         estimate D2E/DX2                !
 ! D211  D(63,60,62,80)        -58.9418         estimate D2E/DX2                !
 ! D212  D(63,60,62,81)        175.0162         estimate D2E/DX2                !
 ! D213  D(63,60,62,82)         56.1784         estimate D2E/DX2                !
 ! D214  D(73,60,62,80)         59.632          estimate D2E/DX2                !
 ! D215  D(73,60,62,81)        -66.41           estimate D2E/DX2                !
 ! D216  D(73,60,62,82)        174.7522         estimate D2E/DX2                !
 ! D217  D(61,60,73,45)        166.8678         estimate D2E/DX2                !
 ! D218  D(61,60,73,64)         45.8577         estimate D2E/DX2                !
 ! D219  D(61,60,73,68)        -72.4328         estimate D2E/DX2                !
 ! D220  D(62,60,73,45)        -70.5707         estimate D2E/DX2                !
 ! D221  D(62,60,73,64)        168.4192         estimate D2E/DX2                !
 ! D222  D(62,60,73,68)         50.1287         estimate D2E/DX2                !
 ! D223  D(63,60,73,45)         50.3861         estimate D2E/DX2                !
 ! D224  D(63,60,73,64)        -70.624          estimate D2E/DX2                !
 ! D225  D(63,60,73,68)        171.0855         estimate D2E/DX2                !
 ! D226  D(66,64,65,77)         49.8008         estimate D2E/DX2                !
 ! D227  D(66,64,65,78)        -70.5996         estimate D2E/DX2                !
 ! D228  D(66,64,65,79)        168.516          estimate D2E/DX2                !
 ! D229  D(67,64,65,77)        -69.183          estimate D2E/DX2                !
 ! D230  D(67,64,65,78)        170.4165         estimate D2E/DX2                !
 ! D231  D(67,64,65,79)         49.5322         estimate D2E/DX2                !
 ! D232  D(73,64,65,77)        170.7152         estimate D2E/DX2                !
 ! D233  D(73,64,65,78)         50.3147         estimate D2E/DX2                !
 ! D234  D(73,64,65,79)        -70.5696         estimate D2E/DX2                !
 ! D235  D(65,64,73,45)        -67.0201         estimate D2E/DX2                !
 ! D236  D(65,64,73,60)         50.2441         estimate D2E/DX2                !
 ! D237  D(65,64,73,68)        168.4819         estimate D2E/DX2                !
 ! D238  D(66,64,73,45)         56.096          estimate D2E/DX2                !
 ! D239  D(66,64,73,60)        173.3602         estimate D2E/DX2                !
 ! D240  D(66,64,73,68)        -68.402          estimate D2E/DX2                !
 ! D241  D(67,64,73,45)        170.411          estimate D2E/DX2                !
 ! D242  D(67,64,73,60)        -72.3248         estimate D2E/DX2                !
 ! D243  D(67,64,73,68)         45.913          estimate D2E/DX2                !
 ! D244  D(70,68,69,74)        168.7171         estimate D2E/DX2                !
 ! D245  D(70,68,69,75)         51.0336         estimate D2E/DX2                !
 ! D246  D(70,68,69,76)        -67.6362         estimate D2E/DX2                !
 ! D247  D(71,68,69,74)         50.7035         estimate D2E/DX2                !
 ! D248  D(71,68,69,75)        -66.98           estimate D2E/DX2                !
 ! D249  D(71,68,69,76)        174.3502         estimate D2E/DX2                !
 ! D250  D(73,68,69,74)        -69.6836         estimate D2E/DX2                !
 ! D251  D(73,68,69,75)        172.6329         estimate D2E/DX2                !
 ! D252  D(73,68,69,76)         53.9631         estimate D2E/DX2                !
 ! D253  D(69,68,73,45)        -84.5588         estimate D2E/DX2                !
 ! D254  D(69,68,73,60)        158.2141         estimate D2E/DX2                !
 ! D255  D(69,68,73,64)         40.1804         estimate D2E/DX2                !
 ! D256  D(70,68,73,45)         39.3727         estimate D2E/DX2                !
 ! D257  D(70,68,73,60)        -77.8544         estimate D2E/DX2                !
 ! D258  D(70,68,73,64)        164.112          estimate D2E/DX2                !
 ! D259  D(71,68,73,45)        153.4528         estimate D2E/DX2                !
 ! D260  D(71,68,73,60)         36.2257         estimate D2E/DX2                !
 ! D261  D(71,68,73,64)        -81.808          estimate D2E/DX2                !
 ! D262  D(94,92,93,47)        -17.1858         estimate D2E/DX2                !
 ! D263  D(94,92,93,100)      -145.6291         estimate D2E/DX2                !
 ! D264  D(95,92,93,47)        160.4626         estimate D2E/DX2                !
 ! D265  D(95,92,93,100)        32.0193         estimate D2E/DX2                !
 ! D266  D(93,92,94,98)         57.7703         estimate D2E/DX2                !
 ! D267  D(95,92,94,98)       -119.8563         estimate D2E/DX2                !
 ! D268  D(93,92,95,51)       -103.5156         estimate D2E/DX2                !
 ! D269  D(94,92,95,51)         74.0327         estimate D2E/DX2                !
 ! D270  D(47,93,99,101)       160.1683         estimate D2E/DX2                !
 ! D271  D(92,93,99,101)       -75.7029         estimate D2E/DX2                !
 ! D272  D(92,94,96,97)        149.5464         estimate D2E/DX2                !
 --------------------------------------------------------------------------------
 Trust Radius=3.00D-01 FncErr=1.00D-07 GrdErr=1.00D-06 EigMax=2.50D+02 EigMin=1.00D-04
 Number of steps in this run=    575 maximum allowed number of steps=    606.
 GradGradGradGradGradGradGradGradGradGradGradGradGradGradGradGradGradGrad

 Leave Link  103 at Wed Apr 24 12:48:23 2024, MaxMem=  2281701376 cpu:               2.2 elap:               0.2
 (Enter /packages/apps/gaussian/g16/g16/l202.exe)
 Stoichiometry    C34H60N2O5
 Framework group  C1[X(C34H60N2O5)]
 Deg. of freedom   297
 Full point group                 C1      NOp   1
 Largest Abelian subgroup         C1      NOp   1
 Largest concise Abelian subgroup C1      NOp   1
                         Standard orientation:                         
 ---------------------------------------------------------------------
 Center     Atomic      Atomic             Coordinates (Angstroms)
 Number     Number       Type             X           Y           Z
 ---------------------------------------------------------------------
      1          6           0        2.922291   -5.104500   -1.176446
      2          6           0        3.764871   -4.251006   -0.236284
      3          1           0        3.161419   -6.162018   -1.063355
      4          1           0        1.857506   -4.976384   -0.980536
      5          1           0        3.101464   -4.829729   -2.217907
      6          6           0        3.538688   -2.737864   -0.397907
      7          1           0        3.561856   -4.533923    0.800692
      8          1           0        4.823838   -4.458717   -0.407828
      9          6           0        4.477079   -1.956926    0.540756
     10          1           0        3.807350   -2.478623   -1.427484
     11          1           0        4.074478   -1.973520    1.557495
     12          1           0        5.430533   -2.489506    0.589106
     13          6           0        4.788684   -0.507125    0.133286
     14          6           0        5.803159    0.113266    1.105714
     15          1           0        5.262080   -0.544146   -0.853618
     16          1           0        5.359774    0.155560    2.104495
     17          1           0        6.663757   -0.556124    1.180927
     18          6           0        6.272244    1.503339    0.693337
     19          1           0        7.014544    1.889812    1.391690
     20          1           0        6.725671    1.483389   -0.299785
     21          1           0        5.439767    2.207095    0.662888
     22          6           0        3.546544    0.346764    0.000132
     23          6           0        3.201398    0.922741   -1.216040
     24          6           0        2.684439    0.526989    1.078073
     25          6           0        2.016499    1.627454   -1.360324
     26          1           0        3.848679    0.783296   -2.073410
     27          6           0        1.499130    1.224822    0.936517
     28          1           0        2.911334    0.067821    2.031731
     29          6           0        1.151137    1.795531   -0.285874
     30          1           0        1.742483    2.025182   -2.329780
     31          1           0        0.812846    1.287050    1.771254
     32          6           0        2.074316   -2.386629   -0.213568
     33          6           0        1.332243   -1.840225   -1.252865
     34          6           0        1.436823   -2.587552    1.009587
     35          6           0       -0.003845   -1.504720   -1.090199
     36          1           0        1.816179   -1.637729   -2.199696
     37          6           0        0.104165   -2.258579    1.179146
     38          1           0        1.993617   -2.983200    1.850283
     39          6           0       -0.641666   -1.744396    0.120984
     40          1           0       -0.543190   -1.013607   -1.893301
     41          1           0       -0.363291   -2.379153    2.148711
     42          6           0       -2.094106   -1.432292    0.302571
     43          1           0       -2.290095   -1.152603    1.332615
     44          1           0       -2.390485   -0.601455   -0.327823
     45          6           0       -0.176843    2.464073   -0.470274
     46          1           0       -0.478124    2.394340   -1.510546
     47          1           0       -0.964938    1.987196    0.126071
     48          6           0       -4.377604   -2.280163    0.669373
     49          1           0       -5.107341   -2.947647    0.208982
     50          6           0       -4.353750   -2.461130    2.174313
     51          1           0       -4.618878   -1.233779    0.450618
     52          6           0       -2.569783   -3.923187    0.412832
     53          6           0       -1.591176   -4.663724   -0.487005
     54          1           0       -2.138533   -3.776050    1.398715
     55          1           0       -3.465216   -4.531613    0.533223
     56          6           0       -3.321052   -2.600421   -1.527499
     57          6           0       -4.190916   -1.479254   -2.068668
     58          1           0       -2.341210   -2.592856   -1.999695
     59          1           0       -3.785214   -3.565704   -1.731066
     60          6           0       -1.721405    4.345524   -0.260227
     61          1           0       -1.802327    5.322693    0.218334
     62          6           0       -2.245401    4.396527   -1.681207
     63          1           0       -2.278844    3.599371    0.308566
     64          6           0        0.174476    4.220810    1.303050
     65          6           0       -0.719152    3.669179    2.396457
     66          1           0        1.178189    3.815915    1.396472
     67          1           0        0.242910    5.306245    1.384110
     68          6           0        0.572122    4.795352   -1.049781
     69          6           0        2.052342    4.946278   -0.732702
     70          1           0        0.436934    4.367454   -2.039609
     71          1           0        0.107282    5.780750   -1.050916
     72          7           0       -3.063388   -2.570410   -0.039197
     73          7           0       -0.256747    3.947567   -0.115496
     74          1           0        2.223956    5.546417    0.158270
     75          1           0        2.510016    5.470771   -1.571527
     76          1           0        2.560099    3.993569   -0.618789
     77          1           0       -0.192820    3.802047    3.341807
     78          1           0       -0.956119    2.617364    2.266919
     79          1           0       -1.667725    4.196321    2.459566
     80          1           0       -2.158796    3.433537   -2.177319
     81          1           0       -1.791314    5.182496   -2.285071
     82          1           0       -3.312892    4.599038   -1.609943
     83          1           0       -5.237726   -1.619527   -1.808640
     84          1           0       -4.109567   -1.509122   -3.155787
     85          1           0       -3.898001   -0.482117   -1.730787
     86          1           0       -4.228338   -3.496038    2.493105
     87          1           0       -5.318497   -2.112259    2.540467
     88          1           0       -3.598346   -1.834293    2.646915
     89          1           0       -1.291872   -5.567086    0.044928
     90          1           0       -0.693789   -4.093602   -0.704146
     91          1           0       -2.046662   -4.974778   -1.424728
     92          6           0       -3.526010    1.266998    0.278446
     93          8           0       -2.611131    1.677943    1.115985
     94          8           0       -3.314699    1.470010   -0.986259
     95          8           0       -4.546853    0.658867    0.687744
     96          8           0       -1.575348    0.859548   -2.770108
     97          1           0       -2.127023    0.834165   -3.550381
     98          1           0       -2.213991    1.091521   -2.024821
     99          8           0       -2.195007    0.149009    3.156102
    100          1           0       -2.434979    0.758153    2.386807
    101          1           0       -2.916817    0.269509    3.771470
 ---------------------------------------------------------------------
 Rotational constants (GHZ):           0.0938360           0.0819328           0.0527191
 Leave Link  202 at Wed Apr 24 12:48:23 2024, MaxMem=  2281701376 cpu:               5.0 elap:               0.3
 (Enter /packages/apps/gaussian/g16/g16/l301.exe)
 Standard basis: 6-311+G(2d,2p) (5D, 7F)
 Ernie: Thresh=  0.10000D-02 Tol=  0.10000D-05 Strict=F.
 There are  1729 symmetry adapted cartesian basis functions of A   symmetry.
 There are  1647 symmetry adapted basis functions of A   symmetry.
  1647 basis functions,  2382 primitive gaussians,  1729 cartesian basis functions
   159 alpha electrons      159 beta electrons
       nuclear repulsion energy      5735.6253130378 Hartrees.
 IExCor= 4639 DFT=T Ex+Corr=wB97XD ExCW=0 ScaHFX=  1.000000
 ScaDFX=  1.000000  1.000000  1.000000  1.000000 ScalE2=  1.000000  1.000000
 IRadAn=      5 IRanWt=     -1 IRanGd=            0 ICorTp=0 IEmpDi=121
 HFx  wShort=  0.000000 wLong=  0.200000 cFull=  0.222036 cShort=  0.000000 cLong=  0.777964
 DFx  wShort=  0.000000 wLong=  0.200000 cFull=  0.000000 cShort=  0.000000 cLong=  1.000000
 NAtoms=  101 NActive=  101 NUniq=  101 SFac= 1.00D+00 NAtFMM=   60 NAOKFM=T Big=T
 Integral buffers will be    131072 words long.
 Raffenetti 2 integral format.
 Two-electron integral symmetry is turned on.
 R6Disp:  Grimme-D2 Dispersion energy=       -0.1305711233 Hartrees.
 Nuclear repulsion after empirical dispersion term =     5735.4947419145 Hartrees.
 Leave Link  301 at Wed Apr 24 12:48:24 2024, MaxMem=  2281701376 cpu:               2.8 elap:               0.2
 (Enter /packages/apps/gaussian/g16/g16/l302.exe)
 NPDir=0 NMtPBC=     1 NCelOv=     1 NCel=       1 NClECP=     1 NCelD=      1
         NCelK=      1 NCelE2=     1 NClLst=     1 CellRange=     0.0.
 One-electron integrals computed using PRISM.
 One-electron integral symmetry used in STVInt
 NBasis=  1647 RedAO= T EigKep=  1.12D-06  NBF=  1647
 NBsUse=  1635 1.00D-06 EigRej=  9.31D-07 NBFU=  1635
 Precomputing XC quadrature grid using
 IXCGrd= 4 IRadAn=           5 IRanWt=          -1 IRanGd=           0 AccXCQ= 0.00D+00.
[...]
 05,-0.00011921,0.00008355,-0.00003572,-0.00003807,-0.00003381,-0.00008
 334,-0.00010608,-0.00002501,-0.00001097,0.00000364,0.00002793,0.000157
 90,0.00038564,0.00057976,0.00003999,-0.00024950,-0.00000891,-0.0000248
 3,0.00000341,-0.00003315,-0.00010035,-0.00009075,-0.00020587,0.0002257
 4,0.00032208,0.00011216,-0.00016525,0.00015223,0.00003774,-0.00017789,
 0.00003487,-0.00004232,0.00042866,-0.00161897,-0.00058124,0.00016289,0
 .00008744,-0.00024888,-0.00039939,-0.00013693,0.00000461,-0.00010013,0
 .00005076,0.00003701,-0.00008183,0.00010383,0.00014094,0.00016153,-0.0
 0012153,-0.00022589,0.00000173,0.00003841,0.00008289,0.00001220,0.0000
 2291,0.00000467,-0.00000835,0.00001247,0.00001784,0.00009321,-0.000177
 52,-0.00113324,-0.00029455,-0.00015922,0.00018139,0.00000561,-0.000025
 41,-0.00002076,-0.00005152,0.00001087,0.00002477,-0.00001864,0.0000051
 1,-0.00002407,-0.00033713,0.00042289,-0.00016054,0.00245926,-0.0012530
 6,0.00049712,0.00005297,-0.00038875,0.00012592,0.00010897,-0.00008622,
 -0.00010738,-0.00005033,0.00013908,0.00015630,-0.00001161,-0.00009422,
 -0.00004221,0.00001649,-0.00001150,-0.00001193,-0.00005265,-0.00004324
 ,-0.00002359,-0.00009857,0.00077250,-0.00021851,-0.00025760,0.00022123
 ,-0.00024311,-0.00001138,0.00002703,0.00006015,0.00034958,-0.00128425,
 -0.00011506,-0.00000167,-0.00000436,-0.00000067,0.00001493,-0.00000711
 ,0.00000367,0.00000362,0.00003884,-0.00005674,-0.02093206,0.01459438,-
 0.00734617,0.01204678,-0.00791624,0.01733676,0.00324763,-0.00309899,0.
 01011922,0.00744136,-0.00713976,-0.00138638,-0.00100743,-0.00079875,0.
 00106564,0.00003396,0.00010540,-0.00010881,0.00151977,0.00071526,-0.00
 174982,-0.04589175,-0.13610880,-0.14220867,0.04055416,0.13896367,-0.00
 000435,-0.00001012,-0.00000237,-0.00000588,0.00001784,0.00004615,-0.00
 000357,-0.00001260,0.00000615,0.00000274,0.00000633,0.00001299,0.00000
 842,-0.00000048,-0.00001651,-0.00001384,-0.00001650,-0.00006346,-0.000
 00198,-0.00001275,-0.00002772,0.00000123,-0.00000358,-0.00000491,-0.00
 009504,0.00002576,0.00006908,0.00002542,0.00000865,-0.00003425,0.00001
 435,0.00000439,-0.00002546,-0.00001069,-0.00003972,-0.00001023,0.00006
 290,0.00004656,-0.00006298,-0.00004006,-0.00005540,0.00006517,-0.00000
 583,-0.00000974,-0.00001123,0.00002124,0.00000887,-0.00001960,-0.00004
 371,-0.00000656,-0.00001860,0.00002057,0.00001640,-0.00001371,-0.00002
 445,0.00000180,-0.00000858,0.00001223,-0.00000161,-0.00000898,-0.00000
 038,-0.00002620,0.00002014,-0.00007432,-0.00000206,0.00005937,-0.00002
 903,-0.00017142,-0.00009187,0.00002648,0.00001937,0.00002620,-0.000203
 93,-0.00019750,-0.00016092,-0.00005095,-0.00001902,0.00001091,-0.00042
 401,-0.00015481,0.00015711,-0.00013840,-0.00007104,-0.00003543,0.00045
 908,0.00062756,0.00019001,0.00005530,0.00002465,-0.00009282,0.00000861
 ,0.00023973,0.00034181,-0.00001555,-0.00003053,-0.00000962,0.00007610,
 -0.00003590,-0.00017290,-0.00011905,-0.00006188,-0.00029136,-0.0000357
 8,-0.00006253,0.00000716,0.00001900,0.00001370,-0.00002370,-0.00030650
 ,0.00032599,0.00076034,-0.00010547,-0.00002811,0.00001104,0.00030754,-
 0.00022279,-0.00017802,0.00015384,0.00019580,-0.00001620,-0.00013042,-
 0.00050833,0.00003656,0.00019965,0.00082046,-0.00060490,0.00037781,0.0
 0142010,0.00230718,0.00030603,0.00101788,-0.00082694,-0.00103073,0.000
 50540,0.00071062,0.00004954,0.00003136,-0.00003895,0.00357962,-0.00097
 415,-0.00175299,-0.00053959,-0.00027183,0.00069761,-0.00000916,-0.0001
 2131,-0.00036120,0.00017284,0.00008187,-0.00009768,0.00001746,0.002052
 02,-0.00005454,0.00026779,0.00016968,0.00035066,-0.00004482,-0.0000967
 3,-0.00011386,-0.00013318,-0.00010284,0.00000299,-0.00001604,-0.000127
 68,0.00001685,0.00031887,0.00019369,0.00035819,0.00003217,-0.00030835,
 0.00004818,-0.00002137,0.00003213,-0.00005687,-0.00003644,-0.00017114,
 -0.00007850,0.00031000,0.00083194,0.00035032,-0.00029022,0.00039625,0.
 00011461,-0.00028466,0.00008367,-0.00007052,0.00090151,-0.00286171,-0.
 00081398,0.00014381,-0.00034926,0.00074614,-0.00016873,0.00017417,-0.0
 0093331,-0.00006459,0.00002597,-0.00007393,0.00006136,-0.00001666,-0.0
 0013502,0.00008360,-0.00003127,-0.00031916,0.00001261,0.00000555,0.000
 10371,0.00005046,-0.00000302,-0.00007088,0.00000394,0.00002274,0.00003
 916,-0.00013943,-0.00068966,-0.00059370,-0.00039261,-0.00007771,0.0000
 4230,-0.00003318,0.00002420,-0.00004158,-0.00006369,0.00001464,-0.0000
 0419,-0.00002577,-0.00001500,-0.00001304,-0.00041999,0.00055092,-0.000
 21513,0.00079493,-0.00001282,0.00204624,0.00005062,-0.00025301,0.00027
 449,0.00018082,-0.00016527,-0.00019598,-0.00007815,0.00022336,0.000225
 32,-0.00002611,-0.00016691,-0.00007113,0.00003884,-0.00001908,-0.00002
 870,-0.00004495,-0.00007641,0.00003817,-0.00014921,0.00093503,-0.00037
 643,-0.00021710,0.00011167,-0.00028270,-0.00000119,0.00001805,0.000053
 89,0.00081034,-0.00117864,0.00083173,-0.00003478,-0.00005274,0.0000063
 5,0.00002642,0.00002627,0.00001035,0.00001677,0.00006580,-0.00005722,-
 0.02597928,0.01363964,-0.02079594,0.01360712,0.01389975,0.01690378,0.0
 0131747,-0.00380797,0.01228674,0.01062822,-0.00714141,-0.00109701,-0.0
 0158162,-0.00076874,0.00171479,0.00005161,0.00008669,-0.00017250,0.002
 27707,0.00074631,-0.00265786,-0.02773872,-0.11499101,-0.19332112,0.028
 49119,0.11378962,0.20661937,0.00000425,0.00000128,-0.00000206,-0.00000
 630,0.00000246,0.00000569,-0.00000146,-0.00000150,0.00000007,-0.000002
 70,0.00000190,0.00000104,0.00000027,0.00000043,-0.00000140,0.00000866,
 0.00000060,-0.00000347,0.00000281,0.,-0.00000223,-0.00000451,-0.000002
 93,0.00000042,-0.00000532,-0.00000499,0.00000967,-0.00000265,-0.000000
 27,-0.00000051,0.00000576,0.00000077,-0.00000073,-0.00000511,-0.000000
 30,-0.00000045,0.00000393,-0.00000232,-0.00000044,-0.00000335,-0.00000
 097,0.00001126,-0.00000175,-0.00000100,-0.00000194,0.00000281,-0.00000
 070,-0.00000296,-0.00000121,0.00000069,-0.00000045,-0.00000201,0.00000
 030,-0.00000346,-0.00000511,0.00000168,-0.00000034,0.00000163,0.000000
 34,-0.00000266,0.00000228,-0.00000090,0.00000353,-0.00000081,-0.000008
 61,-0.00000752,-0.00000284,0.00000377,0.00000524,-0.00000911,0.0000242
 0,0.00002440,0.00000231,0.00000213,0.00000589,0.00000206,-0.00000152,0
 .00000018,0.00001595,0.00005954,-0.00006450,0.00000145,-0.00001053,0.0
 0000375,-0.00003176,0.00000283,-0.00000106,0.00000041,-0.00000482,0.00
 000432,0.00006791,-0.00010008,0.00002520,0.00000274,0.00001648,0.00002
 436,-0.00002943,-0.00001644,-0.00001550,0.00004460,0.00000672,0.000008
 94,0.00004763,-0.00000063,-0.00003363,-0.00000021,-0.00000077,0.000001
 93,-0.00001669,-0.00003876,0.00001758,-0.00000896,-0.00000815,-0.00000
 065,-0.00007969,-0.00001226,-0.00004476,0.00000276,0.00000017,0.000000
 32,-0.00001598,0.00005576,0.00004849,0.00008140,0.00030114,-0.00048185
 ,0.00001755,-0.00043124,0.00047443,0.00001051,0.00000748,0.00002027,-0
 .00001729,-0.00005325,0.00000829,0.00001372,0.00000248,0.00000116,0.00
 001427,-0.00003091,-0.00001794,0.00012308,-0.00004067,-0.00020696,-0.0
 0001128,-0.00001163,0.00005343,-0.00012053,0.00000241,0.00002622,0.000
 00693,0.00005955,-0.00005120,-0.00000781,0.00001195,0.00002150,-0.0000
 0784,0.00000239,-0.00000030,0.00002518,-0.00000628,0.00000409,-0.00000
 648,0.00002764,-0.00001234,-0.00005139,0.00004413,-0.00001294,0.000006
 16,0.00000047,0.00000859,-0.00000424,-0.00000595,0.00002402,-0.0000063
 8,0.00000644,-0.00002253,0.00003290,0.00000247,0.00000661,-0.00000032,
 0.00001647,0.00000265,-0.00000141,0.00000218,0.00000092,0.00001052,-0.
 00000477,0.00001624,-0.00004226,-0.00002184,0.00011607,0.00010679,0.00
 000614,-0.00008361,0.00000825,-0.00000883,-0.00001166,0.00001500,-0.00
 001311,-0.00002355,-0.00001401,0.00002308,-0.00000759,0.00000034,-0.00
 000702,0.00000083,0.00000596,-0.00000490,-0.00001365,0.00000177,0.0000
 0133,0.00000360,-0.00004307,0.00001672,-0.00004265,-0.00000074,-0.0000
 0606,-0.00005165,-0.00000491,0.00000969,-0.00000173,0.00000087,-0.0000
 0004,-0.00000548,0.00000043,-0.00000471,0.00000376,-0.00007681,0.00007
 533,-0.00001702,-0.00009514,-0.00009532,0.00018839,0.00000479,0.000049
 58,0.00002249,0.00000894,-0.00001065,-0.00001187,-0.00000342,0.0000069
 4,-0.00000537,-0.00000224,-0.00000993,-0.00000462,-0.00001578,0.000008
 43,-0.00001354,-0.00000818,-0.00000637,0.00001324,0.00001827,-0.000000
 33,-0.00001704,0.00000799,-0.00012673,0.00009159,-0.00022588,0.0001633
 9,-0.00006191,0.00039429,0.00049482,-0.00018652,-0.00000202,-0.0000070
 8,0.00000106,-0.00000463,-0.00000380,0.00000735,-0.00000155,0.00000016
 ,0.00000235,0.00186571,-0.00101322,-0.00002816,-0.00117807,-0.00090227
 ,-0.00174366,-0.00041583,0.00024346,0.00013464,-0.00088157,0.00053626,
 0.00085750,-0.00006644,0.00000672,0.00005650,0.00000474,-0.00000773,-0
 .00000605,0.00007563,0.00002006,-0.00008187,-0.32073297,-0.05263983,0.
 27190169,0.00432928,-0.00096130,-0.00500705,0.31687602,-0.00000842,-0.
 00000684,0.00000128,0.00000158,0.00000843,0.00000384,-0.00000255,-0.00
 000660,0.00000244,0.00000248,0.00000706,0.00000001,0.00000231,0.000000
 22,-0.00000223,0.00000060,0.00000687,-0.00000133,0.00000007,-0.0000000
 8,-0.00000341,0.00000253,-0.00000281,0.00000088,-0.00001034,0.00000279
 ,0.00000262,0.00000024,0.00000010,-0.00000212,0.00000300,0.00000332,0.
 00000013,-0.00000375,-0.00000598,-0.00000034,0.00000918,0.00000945,-0.
 00000448,-0.00000138,-0.00000690,-0.00000077,-0.00000324,-0.00000285,0
 .00000224,0.00000261,0.00000357,0.00000225,-0.00000798,-0.00000272,-0.
 00000123,0.00000585,0.00000284,0.00000025,0.00000048,-0.00000040,-0.00
 000149,-0.00000023,-0.00000127,0.00000187,-0.00000256,-0.00000480,-0.0
 0000103,0.00000959,0.00000907,0.00000287,-0.00000669,-0.00001473,-0.00
 000137,0.00000037,-0.00000795,0.00001267,-0.00000402,-0.00001107,-0.00
 000816,-0.00000559,0.00000064,0.00000385,0.00002323,-0.00002614,-0.000
 00302,0.00000185,0.00000519,-0.00000507,0.00000773,-0.00000193,0.00000
 669,-0.00000044,0.00000722,-0.00000344,-0.00005955,0.00003041,0.000012
 86,-0.00001243,0.00002158,0.00000755,-0.00001972,-0.00000964,0.0000180
 4,0.00003057,-0.00002324,0.00001775,-0.00001417,0.00001716,-0.00002611
 ,-0.00000227,-0.00000076,-0.00000202,0.00000863,-0.00009869,-0.0000355
 2,-0.00001379,0.00000034,0.00000056,0.00016523,-0.00001022,-0.00005557
 ,-0.00000191,0.00001638,0.00000085,0.00000153,0.00016080,0.00004910,0.
 00006822,-0.00017653,0.00031691,-0.00078687,0.00049784,-0.00038525,0.0
 0001295,0.00000140,0.00003012,-0.00000240,0.00009081,-0.00000083,-0.00
 001279,0.00000048,-0.00000468,0.00005455,0.00000340,-0.00000958,-0.000
 65634,0.00015306,0.00052672,0.00006531,0.00002060,-0.00030145,0.000727
 98,-0.00008409,-0.00024107,0.00005507,0.00027905,0.00000608,0.00005428
 ,0.00002473,0.00006839,-0.00001293,-0.00002576,-0.00002211,-0.00011537
 ,0.00001331,0.00001388,0.00002391,-0.00008514,0.00004076,0.00014565,-0
 .00009230,0.00008044,-0.00001252,-0.00001056,-0.00001793,0.00000246,0.
 00001629,-0.00007233,0.00001845,-0.00003435,0.00004917,0.00001065,-0.0
 0002011,-0.00002140,0.00000581,-0.00003160,-0.00000985,-0.00000498,-0.
 00000386,0.00000032,-0.00001343,0.00004276,-0.00004608,0.00001021,-0.0
 0003323,-0.00015120,-0.00003831,-0.00000308,0.00011930,-0.00002672,0.0
 0001678,0.00003592,-0.00000777,0.00001700,0.00002454,0.00003309,-0.000
 03929,-0.00001083,-0.00000367,0.00001158,0.00000660,-0.00000713,0.0000
 0722,0.00001607,-0.00000192,-0.00000200,-0.00000350,0.00013572,-0.0001
 1945,0.00007330,-0.00003458,0.00000055,0.00007776,0.00000812,-0.000012
 28,0.00000044,-0.00000435,0.00000204,0.00000905,-0.00000003,0.00000318
 ,-0.00000563,0.00006965,-0.00004896,0.00001292,0.00009971,0.00027042,-
 0.00015135,-0.00000986,-0.00016000,-0.00006634,-0.00000484,0.00000782,
 0.00001018,-0.00000178,0.00000141,0.00001332,-0.00000068,0.00000427,-0
 .00000615,0.00003437,0.00000154,0.00002064,0.00000996,-0.00000308,-0.0
 0002306,-0.00002084,0.00005159,-0.00001705,-0.00019278,0.00022909,-0.0
 0016880,0.00014603,-0.00010109,0.00006843,-0.00016037,-0.00133850,0.00
 122592,-0.00000289,-0.00000364,0.00000173,0.00002383,0.00002265,-0.000
 02672,0.00001796,0.00000844,-0.00002033,-0.00098982,0.00000871,-0.0003
 6341,-0.00142123,-0.00187592,-0.00057087,0.00029809,0.00002265,0.00004
 140,0.00027172,-0.00081524,-0.00003161,0.00002641,-0.00007783,0.000024
 28,-0.00000631,0.00002610,0.00000331,-0.00001142,0.00004268,-0.0000311
 8,-0.07294818,-0.02878557,0.04211765,0.02066146,0.00556031,-0.01696666
 ,0.05432284,0.02645583,0.00000763,0.00000021,-0.00000462,-0.00000871,0
 .00000843,0.00000863,-0.00000315,-0.00000666,0.00000040,-0.00000443,0.
 00000529,0.00000180,0.00000077,0.00000217,-0.00000114,0.00001500,0.000
 00145,-0.00001016,0.00000523,0.00000009,-0.00000341,-0.00000968,-0.000
 00579,0.00000131,-0.00001189,-0.00000545,0.00001196,-0.00000383,0.0000
 0029,0.00000033,0.00000842,0.00000220,0.00000035,-0.00001217,-0.000005
 20,-0.00000086,0.00001344,0.00000199,-0.00000630,-0.00000096,-0.000006
 28,0.00001363,-0.00000383,-0.00000154,0.00000011,0.00000553,0.00000174
 ,-0.00000172,-0.00000806,-0.00000201,-0.00000165,0.00000132,0.00000305
 ,-0.00000476,-0.00000835,0.00000334,-0.00000347,0.00000229,-0.00000015
 ,-0.00000032,0.00000220,-0.00000562,0.00000437,0.00000037,0.00000346,-
 0.00000203,-0.00000959,-0.00000643,-0.00000308,-0.00001034,0.00001759,
 0.00003026,-0.00000918,-0.00000293,-0.00000459,-0.00000283,-0.00000474
 ,0.00000423,-0.00000574,0.00001520,-0.00002469,0.00000318,-0.00001037,
 -0.00000064,-0.00001208,0.00003131,0.00001303,0.00000342,-0.00000170,-
 0.00000003,0.00005711,-0.00003844,-0.00001419,0.00000620,0.00000358,0.
 00000809,-0.00002311,-0.00000974,-0.00001575,0.00001169,0.00001052,0.0
 0002758,0.00000904,-0.00001448,-0.00001126,-0.00000467,0.00000286,0.00
 000368,-0.00004200,-0.00002498,0.00000982,-0.00001336,-0.00000664,-0.0
 0000415,-0.00004165,-0.00003187,0.00001625,0.00000985,0.00000604,-0.00
 000324,0.00003848,0.00005391,0.00001400,-0.00005697,0.00018415,0.00002
 295,0.00043739,-0.00018950,-0.00025601,0.00002654,0.00002705,-0.000007
 44,-0.00007283,0.00000530,0.00004314,0.00001317,-0.00000391,-0.0000013
 4,0.00020225,-0.00005203,-0.00008304,0.00023579,-0.00004252,-0.0002707
 1,-0.00002967,-0.00005372,0.00013411,-0.00033249,-0.00022410,-0.000124
 09,-0.00003142,0.00016583,-0.00011120,0.00000188,0.00005082,0.00002084
 ,-0.00000079,-0.00000027,-0.00000254,0.00003521,0.00000411,0.00000608,
 -0.00000598,0.00002922,-0.00001246,-0.00005011,0.00004788,-0.00004191,
 -0.00000073,-0.00000271,0.00001596,-0.00000585,-0.00000278,0.00003046,
 -0.00000250,-0.00000793,-0.00001900,0.00003775,0.00000419,0.00000775,-
 0.00001241,0.00001986,0.00000060,-0.00001131,0.00000481,-0.00000265,0.
 00001761,-0.00008770,-0.00002457,0.00000011,0.00002453,0.00000636,0.00
 001080,0.00003228,0.00004396,-0.00000428,-0.00000613,0.00000085,-0.000
 00648,0.00001718,0.00001416,0.00001646,-0.00000995,-0.00002589,-0.0000
 0174,0.00000026,0.00000801,0.00000171,-0.00000119,-0.00000553,0.000000
 88,0.00000408,0.00000331,-0.00005825,0.00001079,-0.00008781,-0.0000272
 9,-0.00000135,-0.00001279,0.00000017,0.00000250,-0.00000518,-0.0000045
 6,0.00000171,0.00000297,0.00000203,-0.00000489,0.00000012,-0.00006386,
 0.00003011,-0.00001822,0.00010599,-0.00014415,-0.00002015,0.00002017,-
 0.00002218,0.00002324,0.00001710,-0.00001886,-0.00001820,-0.00001106,0
 .00001985,0.00000859,-0.00000003,-0.00001755,-0.00000506,-0.00001965,0
 .00001084,-0.00002480,-0.00001284,-0.00000967,0.00002656,0.00002096,0.
 00003370,-0.00004224,0.00016589,-0.00030475,0.00017210,-0.00006799,0.0
 0012952,0.00002890,0.00007667,0.00115941,-0.00013430,-0.00000824,-0.00
 001352,0.00000069,-0.00000762,-0.00000059,0.00000963,-0.00000411,0.000
 00183,0.00000814,0.00203656,-0.00167581,-0.00101861,-0.00299804,-0.001
 28512,-0.00075245,-0.00043259,0.00038648,0.00070169,-0.00060460,0.0007
 7875,0.00157951,-0.00014142,-0.00003063,0.00016400,0.00000879,-0.00000
 660,-0.00001867,0.00017924,0.00006516,-0.00023124,0.23554719,0.0183130
 9,-0.24005478,0.03176658,0.00795130,-0.02099101,-0.26584874,-0.0252802
 1,0.26129146\\0.00000057,-0.00000026,-0.00000024,0.00000066,0.00000022
 ,-0.00000121,0.00000022,-0.00000006,-0.00000065,-0.00000003,-0.0000002
 0,-0.00000057,0.00000014,-0.00000040,-0.00000043,-0.00000094,0.0000014
 2,-0.00000026,0.00000002,0.00000001,-0.00000032,0.00000029,-0.00000012
 ,-0.00000046,-0.00000010,-0.00000025,-0.00000070,-0.00000044,-0.000000
 55,-0.00000046,-0.00000010,-0.00000098,-0.00000062,0.00000022,-0.00000
 027,-0.00000036,0.00000093,-0.00000122,0.00000120,0.00000053,0.0000005
 3,0.00000002,0.00000023,-0.00000078,0.00000016,-0.00000006,0.00000006,
 -0.00000002,0.00000012,-0.00000011,0.00000007,-0.00000035,-0.00000031,
 -0.00000014,-0.00000005,-0.00000009,0.00000010,-0.00000009,-0.00000028
 ,0.00000008,0.00000006,-0.00000010,0.00000014,-0.00000056,0.00000122,0
 .00000063,-0.00000008,0.00000066,-0.00000216,0.00000065,0.00000043,-0.
 00000042,0.00000032,-0.00000166,0.00000049,-0.00000007,-0.00000069,0.0
 0000035,-0.00000156,0.00000123,-0.00000112,0.00000030,0.00000006,0.,0.
 00000095,-0.00000048,0.00000173,0.00000042,-0.00000029,-0.00000018,0.0
 0000117,-0.00000061,-0.00000006,-0.00000006,-0.00000186,-0.00000062,0.
 00000045,-0.00000050,-0.00000119,-0.00000021,-0.00000076,0.00000157,-0
 .00000073,0.00000073,-0.00000051,0.00000006,-0.00000055,0.00000004,0.0
 0000052,0.00000162,0.00000058,0.00000003,0.00000037,-0.00000032,-0.000
 00023,0.00000206,0.00000148,0.,0.00000152,-0.00000249,0.00000006,0.000
 00053,-0.00000009,0.00000910,0.00000701,0.00000634,-0.00000166,0.00000
 274,-0.00000097,-0.00000924,-0.00000108,-0.00000373,0.00000441,-0.0000
 0096,0.00000497,-0.00000551,-0.00000399,0.00000077,0.00000048,0.000002
 69,-0.00000011,0.00000240,0.00000186,0.00000226,0.00000014,0.00000018,
 -0.00000054,-0.00000043,0.00000054,0.,-0.00000665,-0.00000844,-0.00000
 829,0.00000163,-0.00000016,-0.00000274,-0.00000053,-0.00000219,-0.0000
 0128,0.00000145,-0.00000181,0.00000030,-0.00000057,-0.00000005,0.00000
 012,0.00000185,-0.00000088,-0.00000129,-0.00000073,0.00000111,-0.00000
 103,0.00000023,-0.00000030,-0.00000013,0.00000043,0.00000155,0.0000003
 2,-0.00000057,-0.00000234,0.00000083,0.00000009,-0.00000020,-0.0000001
 3,-0.00000251,0.00000100,0.00000183,-0.00000193,-0.00000058,0.00000395
 ,0.00000114,0.00000338,-0.00000023,-0.00000322,0.00000033,-0.00000162,
 -0.00000041,0.00000168,0.00000035,-0.00000019,-0.00000003,0.00000013,0
 .00000222,-0.00000268,0.00000124,-0.00000082,0.00000062,-0.00000078,-0
 .00000044,-0.00000106,0.00000052,0.00000162,0.00000034,0.00000081,0.00
 000272,0.00000095,0.00000327,0.00000073,-0.00000076,-0.00000027,0.0000
 0015,-0.00000035,0.00000038,-0.00000038,-0.00000018,0.00000030,0.00000
 052,0.00000104,0.00000032,-0.00000065,0.00000075,0.00000053,-0.0000007
 7,-0.00000019,-0.00000029,-0.00000170,0.00000074,-0.00000136,0.0000017
 3,0.00000241,-0.00000158,-0.00000144,0.00000070,0.00000002,-0.00000031
 ,0.00000124,0.00000062,-0.00000004,-0.00000015,0.00000094,0.00000036,-
 0.00000098,0.00000067,-0.00000481,0.00000250,-0.00000236,0.00000048,0.
 00000026,-0.00000035,0.00000077,-0.00000032,-0.00000019,0.00000102,0.0
 0000040,-0.00000076,-0.00000004,0.00000043,-0.00000021,0.00000158,-0.0
 0000245,-0.00000050,0.00000019,-0.00000029,-0.00000075,0.00000735,0.00
 000294,0.00000379,-0.00000288,-0.00000236,0.00000669,-0.00000905,-0.00
 000013,-0.00000630,0.00000612,-0.00000326,-0.00000103,0.00000702,0.000
 00085,-0.00000795,-0.00000071,-0.00000020,0.00000823,-0.00000512,-0.00
 000324,0.00000501,-0.00000170,0.00000299,0.00000504,0.00000408,-0.0000
 0088,-0.00000944,-0.00000023,-0.00000004,0.00000261\\\@


 HICKORY, DICKORY, DOCK
 TWO MICE RAN UP THE CLOCK
 THE CLOCK STRUCK ONE...
 THE OTHER ESCAPED WITH MINOR INJURIES.
 Job cpu time:      60 days 23 hours 40 minutes 27.3 seconds.
 Elapsed time:       1 days 13 hours 17 minutes 51.7 seconds.
 File lengths (MBytes):  RWF=  60363 Int=      0 D2E=      0 Chk=    216 Scr=      1
 Normal termination of Gaussian 16 at Fri Apr 26 05:03:46 2024.
