 Entering Gaussian System, Link 0=g16
 Input=4water.gjf
 Output=4water.log
 Initial command:
 /packages/apps/gaussian/g16/g16/l1.exe "/scratch/mdturne9/3-5-ethyl/ofreq/Gau-3080271.inp" -scrdir="/scratch/mdturne9/3-5-ethyl/ofreq/"
 Entering Link 1 = /packages/apps/gaussian/g16/g16/l1.exe PID=   3080272.
  
 Copyright (c) 1988,1990,1992,1993,1995,1998,2003,2009,2016,
            Gaussian, Inc.  All Rights Reserved.
  
 This is part of the Gaussian(R) 16 program.  It is based on
 the Gaussian(R) 09 system (copyright 2009, Gaussian, Inc.),
 the Gaussian(R) 03 system (copyright 2003, Gaussian, Inc.),
 the Gaussian(R) 98 system (copyright 1998, Gaussian, Inc.),
 the Gaussian(R) 94 system (copyright 1995, Gaussian, Inc.),
 the Gaussian 92(TM) system (copyright 1992, Gaussian, Inc.),
 the Gaussian 90(TM) system (copyright 1990, Gaussian, Inc.),
 the Gaussian 88(TM) system (copyright 1988, Gaussian, Inc.),
 the Gaussian 86(TM) system (copyright 1986, Carnegie Mellon
 University), and the Gaussian 82(TM) system (copyright 1983,
 Carnegie Mellon University). Gaussian is a federally registered
 trademark of Gaussian, Inc.
  
 This software contains proprietary and confidential information,
 including trade secrets, belonging to Gaussian, Inc.
  
 This software is provided under written license and may be
 used, copied, transmitted, or stored only in accord with that
 written license.
  
 The following legend is applicable only to US Government
 contracts under FAR:
  
                    RESTRICTED RIGHTS LEGEND
  
 Use, reproduction and disclosure by the US Government is
 subject to restrictions as set forth in subparagraphs (a)
 and (c) of the Commercial Computer Software - Restricted
 Rights clause in FAR 52.227-19.
  
 Gaussian, Inc.
 340 Quinnipiac St., Bldg. 40, Wallingford CT 06492
  
  
 ---------------------------------------------------------------
 Warning -- This program may not be used in any manner that
 competes with the business of Gaussian, Inc. or will provide
 assistance to any competitor of Gaussian, Inc.  The licensee
 of this program is prohibited from giving any competitor of
 Gaussian, Inc. access to this program.  By using this program,
 the user acknowledges that Gaussian, Inc. is engaged in the
 business of creating and licensing software in the field of
 computational chemistry and represents and warrants to the
 licensee that it is not a competitor of Gaussian, Inc. and that
 it will not use this program in any manner prohibited above.
 ---------------------------------------------------------------
  

 Cite this work as:
 Gaussian 16, Revision A.03,
 M. J. Frisch, G. W. Trucks, H. B. Schlegel, G. E. Scuseria, 
 M. A. Robb, J. R. Cheeseman, G. Scalmani, V. Barone, 
 G. A. Petersson, H. Nakatsuji, X. Li, M. Caricato, A. V. Marenich, 
 J. Bloino, B. G. Janesko, R. Gomperts, B. Mennucci, H. P. Hratchian, 
 J. V. Ortiz, A. F. Izmaylov, J. L. Sonnenberg, D. Williams-Young, 
 F. Ding, F. Lipparini, F. Egidi, J. Goings, B. Peng, A. Petrone, 
 T. Henderson, D. Ranasinghe, V. G. Zakrzewski, J. Gao, N. Rega, 
 G. Zheng, W. Liang, M. Hada, M. Ehara, K. Toyota, R. Fukuda, 
 J. Hasegawa, M. Ishida, T. Nakajima, Y. Honda, O. Kitao, H. Nakai, 
 T. Vreven, K. Throssell, J. A. Montgomery, Jr., J. E. Peralta, 
 F. Ogliaro, M. J. Bearpark, J. J. Heyd, E. N. Brothers, K. N. Kudin, 
 V. N. Staroverov, T. A. Keith, R. Kobayashi, J. Normand, 
 K. Raghavachari, A. P. Rendell, J. C. Burant, S. S. Iyengar, 
 J. Tomasi, M. Cossi, J. M. Millam, M. Klene, C. Adamo, R. Cammi, 
 J. W. Ochterski, R. L. Martin, K. Morokuma, O. Farkas, 
 J. B. Foresman, and D. J. Fox, Gaussian, Inc., Wallingford CT, 2016.
 
 ******************************************
 Gaussian 16:  ES64L-G16RevA.03 25-Dec-2016
                 7-May-2024 
 ******************************************
 %nprocshared=40
 Will use up to   40 processors via shared memory.
 %mem=18GB
 %chk=4water.chk
 ---------------------------------------------------
 #p opt freq wb97xd/6-311+g(2d,2p) geom=connectivity
 ---------------------------------------------------
 1/18=20,19=15,26=3,38=1,57=2/1,3;
 2/9=110,12=2,17=6,18=5,40=1/2;
 3/5=4,6=6,7=212,11=2,25=1,30=1,71=1,74=-58/1,2,3;
 4//1;
 5/5=2,38=5/2;
 6/7=2,8=2,9=2,10=2,28=1/1;
 7//1,2,3,16;
 1/18=20,19=15,26=3/3(2);
 2/9=110/2;
 99//99;
 2/9=110/2;
 3/5=4,6=6,7=212,11=2,25=1,30=1,71=1,74=-58/1,2,3;
 4/5=5,16=3,69=1/1;
 5/5=2,38=5/2;
 7//1,2,3,16;
 1/18=20,19=15,26=3/3(-5);
 2/9=110/2;
 6/7=2,8=2,9=2,10=2,19=2,28=1/1;
 99/9=1/99;
 Leave Link    1 at Tue May  7 19:33:28 2024, MaxMem=  2415919104 cpu:              10.7 elap:               0.5
 (Enter /packages/apps/gaussian/g16/g16/l101.exe)
 --------
 Required
 --------
 Symbolic Z-matrix:
 Charge =  0 Multiplicity = 1
 C                    0    -3.35186  -4.92939   1.41094  L 
 C                    0    -4.18378  -4.04855   0.48663  L 
 H                    0    -3.67077  -5.96994   1.34921  L 
 H                    0    -2.29313  -4.8854    1.15454  L 
 H                    0    -3.45288  -4.60887   2.44981  L 
 C                    0    -3.84608  -2.54992   0.57993  L 
 H                    0    -4.05849  -4.37811  -0.54892  L 
 H                    0    -5.24325  -4.17512   0.72186  L 
 C                    0    -4.7859   -1.73799  -0.32917  L 
 H                    0    -4.03438  -2.23917   1.61298  L 
 H                    0    -4.46261  -1.83181  -1.36975  L 
 H                    0    -5.77769  -2.19553  -0.28428  L 
 C                    0    -4.95466  -0.25216   0.02745  L 
 C                    0    -5.99932   0.40022  -0.8909   L 
 H                    0    -5.3442   -0.20708   1.05     L 
 H                    0    -5.63928   0.36213  -1.92292  L 
 H                    0    -6.91054  -0.20259  -0.86176  L 
 C                    0    -6.32768   1.84009  -0.51507  L 
 H                    0    -7.09506   2.25108  -1.17109  L 
 H                    0    -6.69662   1.90102   0.51078  L 
 H                    0    -5.44561   2.47713  -0.58723  L 
 C                    0    -3.64674   0.50843   0.01336  L 
 C                    0    -3.16624   1.13134   1.15833  L 
 C                    0    -2.86427   0.55676  -1.13666  L 
 C                    0    -1.9313    1.76256   1.16767  L 
 H                    0    -3.75251   1.09571   2.06868  L 
 C                    0    -1.62605   1.17092  -1.13074  L 
 H                    0    -3.19843   0.05871  -2.03785  L 
 C                    0    -1.14797   1.79528   0.01912  L 
 H                    0    -1.55808   2.21564   2.07864  L 
 H                    0    -1.00509   1.12815  -2.01629  L 
 C                    0    -2.37289  -2.31591   0.30255  L 
 C                    0    -1.52683  -1.8367    1.2947   L 
 C                    0    -1.82574  -2.5784   -0.95224  L 
 C                    0    -0.17469  -1.64035   1.05637  L 
 H                    0    -1.93525  -1.58557   2.26508  L 
 C                    0    -0.48013  -2.37631  -1.19933  L 
 H                    0    -2.46304  -2.92305  -1.7573   L 
 C                    0     0.37034  -1.93999  -0.18622  L 
 H                    0     0.45319  -1.22271   1.83509  L 
 H                    0    -0.07964  -2.54015  -2.19209  L 
 C                    0     1.83378  -1.76969  -0.44986  L 
 H                    0     2.00169  -1.5661   -1.50301  L 
 H                    0     2.23967  -0.9388    0.11907  L 
 C                    0     0.2281    2.3885    0.04699  L 
 H                    0     0.59609   2.40884   1.06351  L 
 H                    0     0.93553   1.80708  -0.55422  L 
 C                    0     4.10749  -2.67047  -0.62618  L 
 H                    0     4.76292  -3.38561  -0.12777  L 
 C                    0     4.26995  -2.73658  -2.13158  L 
 H                    0     4.34815  -1.65261  -0.31697  L 
 C                    0     2.21691  -4.24155  -0.76716  L 
 C                    0     1.14298  -5.04442  -0.04715  L 
 H                    0     1.88051  -3.9503   -1.75864  L 
 H                    0     3.09784  -4.86916  -0.8908   L 
 C                    0     2.7886   -3.19261   1.38289  L 
 C                    0     3.42703  -2.07448   2.17886  L 
 H                    0     1.77066  -3.35968   1.72462  L 
 H                    0     3.34358  -4.12248   1.5119   L 
 C                    0     1.85832   4.14121  -0.45072  L 
 H                    0     1.95125   5.07067  -1.01434  L 
 C                    0     2.5165    4.27274   0.9081   L 
 H                    0     2.32159   3.3241   -1.00329  L 
 C                    0    -0.16257   4.01216  -1.8354   L 
 C                    0     0.61159   3.31436  -2.9386   L 
 H                    0    -1.19111   3.66424  -1.81607  L 
 H                    0    -0.1781    5.08891  -2.00615  L 
 C                    0    -0.32579   4.79792   0.49481  L 
 C                    0    -1.81455   5.02093   0.27796  L 
 H                    0    -0.13734   4.43136   1.50204  L 
 H                    0     0.19526   5.74753   0.37492  L 
 N                    0     2.70812  -2.97454  -0.10599  L 
 N                    0     0.36829   3.82931  -0.4382   L 
 H                    0    -2.02686   5.56261  -0.64184  L 
 H                    0    -2.1687    5.63301   1.10726  L 
 H                    0    -2.38521   4.09746   0.28356  L 
 H                    0     0.00224   3.35232  -3.84143  L 
 H                    0     0.84138   2.27699  -2.70967  L 
 H                    0     1.55779   3.80679  -3.15024  L 
 H                    0     2.46435   3.34844   1.47474  L 
 H                    0     2.12522   5.09637   1.50284  L 
 H                    0     3.57328   4.46109   0.72172  L 
 H                    0     4.45714  -1.8735    1.90068  L 
 H                    0     3.41691  -2.37285   3.22705  L 
 H                    0     2.87732  -1.14112   2.10284  L 
 H                    0     4.20597  -3.7474   -2.53451  L 
 H                    0     5.26032  -2.33992  -2.34788  L 
 H                    0     3.56548  -2.08365  -2.64354  L 
 H                    0     0.82322  -5.83285  -0.7286   L 
 H                    0     0.268    -4.45542   0.20963  L 
 H                    0     1.52403  -5.52569   0.8512   L 
 C                    0     3.40023   0.84761  -0.78895  L 
 O                    0     2.4681    1.214    -1.61458  L 
 O                    0     3.20724   1.12497   0.47843  L 
 O                    0     4.41787   0.22426  -1.16056  L 
 O                    0     1.83992   1.0218    2.67082  L 
 H                    0     2.68376   1.00107   3.14105  L 
 H                    0     2.16654   1.06927   1.73116  L 
 O                    0     1.83754  -0.50084  -3.45363  L 
 H                    0     2.15554   0.18227  -2.78691  L 
 H                    0     2.46703  -0.43965  -4.17048  L 
 O                    0     4.72536   0.76836   2.56875  L 
 H                    0     5.48058   1.35294   2.57767  L 
 H                    0     4.31899   0.87224   1.66143  L 
 O                    0     0.21988   3.09803   3.40347  L 
 H                    0     0.81961   2.34494   3.20965  L 
 H                    0     0.44842   3.39004   4.28423  L 
 
 Add virtual bond connecting atoms H100       and O93        Dist= 3.01D+00.
 Add virtual bond connecting atoms H98        and O94        Dist= 3.08D+00.
 Add virtual bond connecting atoms H104       and O94        Dist= 3.10D+00.
 Add virtual bond connecting atoms H106       and O96        Dist= 3.32D+00.
 Add virtual bond connecting atoms O93        and H47        Dist= 3.70D+00.
 Add virtual bond connecting atoms O95        and H51        Dist= 3.89D+00.
 ITRead=  0  0  0  0  0  0  0  0  0  0  0  0  0  0  0  0  0  0  0  0
 ITRead=  0  0  0  0  0  0  0  0  0  0  0  0  0  0  0  0  0  0  0  0
 ITRead=  0  0  0  0  0  0  0  0  0  0  0  0  0  0  0  0  0  0  0  0
 ITRead=  0  0  0  0  0  0  0  0  0  0  0  0  0  0  0  0  0  0  0  0
 ITRead=  0  0  0  0  0  0  0  0  0  0  0  0  0  0  0  0  0  0  0  0
 ITRead=  0  0  0  0  0  0  0
 MicOpt= -1 -1 -1 -1 -1 -1 -1 -1 -1 -1 -1 -1 -1 -1 -1 -1 -1 -1 -1 -1
 MicOpt= -1 -1 -1 -1 -1 -1 -1 -1 -1 -1 -1 -1 -1 -1 -1 -1 -1 -1 -1 -1
 MicOpt= -1 -1 -1 -1 -1 -1 -1 -1 -1 -1 -1 -1 -1 -1 -1 -1 -1 -1 -1 -1
 MicOpt= -1 -1 -1 -1 -1 -1 -1 -1 -1 -1 -1 -1 -1 -1 -1 -1 -1 -1 -1 -1
 MicOpt= -1 -1 -1 -1 -1 -1 -1 -1 -1 -1 -1 -1 -1 -1 -1 -1 -1 -1 -1 -1
 MicOpt= -1 -1 -1 -1 -1 -1 -1
 NAtoms=    107 NQM=      107 NQMF=       0 NMMI=      0 NMMIF=      0
                NMic=       0 NMicF=      0.
                    Isotopes and Nuclear Properties:
 (Nuclear quadrupole moments (NQMom) in fm**2, nuclear magnetic moments (NMagM)
  in nuclear magnetons)

  Atom         1           2           3           4           5           6           7           8           9          10
 IAtWgt=          12          12           1           1           1          12           1           1          12           1
 AtmWgt=  12.0000000  12.0000000   1.0078250   1.0078250   1.0078250  12.0000000   1.0078250   1.0078250  12.0000000   1.0078250
 NucSpn=           0           0           1           1           1           0           1           1           0           1
 AtZEff=  -0.0000000  -0.0000000  -0.0000000  -0.0000000  -0.0000000  -0.0000000  -0.0000000  -0.0000000  -0.0000000  -0.0000000
 NQMom=    0.0000000   0.0000000   0.0000000   0.0000000   0.0000000   0.0000000   0.0000000   0.0000000   0.0000000   0.0000000
 NMagM=    0.0000000   0.0000000   2.7928460   2.7928460   2.7928460   0.0000000   2.7928460   2.7928460   0.0000000   2.7928460
 AtZNuc=   6.0000000   6.0000000   1.0000000   1.0000000   1.0000000   6.0000000   1.0000000   1.0000000   6.0000000   1.0000000

  Atom        11          12          13          14          15          16          17          18          19          20
 IAtWgt=           1           1          12          12           1           1           1          12           1           1
 AtmWgt=   1.0078250   1.0078250  12.0000000  12.0000000   1.0078250   1.0078250   1.0078250  12.0000000   1.0078250   1.0078250
 NucSpn=           1           1           0           0           1           1           1           0           1           1
 AtZEff=  -0.0000000  -0.0000000  -0.0000000  -0.0000000  -0.0000000  -0.0000000  -0.0000000  -0.0000000  -0.0000000  -0.0000000
 NQMom=    0.0000000   0.0000000   0.0000000   0.0000000   0.0000000   0.0000000   0.0000000   0.0000000   0.0000000   0.0000000
 NMagM=    2.7928460   2.7928460   0.0000000   0.0000000   2.7928460   2.7928460   2.7928460   0.0000000   2.7928460   2.7928460
 AtZNuc=   1.0000000   1.0000000   6.0000000   6.0000000   1.0000000   1.0000000   1.0000000   6.0000000   1.0000000   1.0000000

  Atom        21          22          23          24          25          26          27          28          29          30
 IAtWgt=           1          12          12          12          12           1          12           1          12           1
 AtmWgt=   1.0078250  12.0000000  12.0000000  12.0000000  12.0000000   1.0078250  12.0000000   1.0078250  12.0000000   1.0078250
 NucSpn=           1           0           0           0           0           1           0           1           0           1
 AtZEff=  -0.0000000  -0.0000000  -0.0000000  -0.0000000  -0.0000000  -0.0000000  -0.0000000  -0.0000000  -0.0000000  -0.0000000
 NQMom=    0.0000000   0.0000000   0.0000000   0.0000000   0.0000000   0.0000000   0.0000000   0.0000000   0.0000000   0.0000000
 NMagM=    2.7928460   0.0000000   0.0000000   0.0000000   0.0000000   2.7928460   0.0000000   2.7928460   0.0000000   2.7928460
 AtZNuc=   1.0000000   6.0000000   6.0000000   6.0000000   6.0000000   1.0000000   6.0000000   1.0000000   6.0000000   1.0000000

  Atom        31          32          33          34          35          36          37          38          39          40
 IAtWgt=           1          12          12          12          12           1          12           1          12           1
 AtmWgt=   1.0078250  12.0000000  12.0000000  12.0000000  12.0000000   1.0078250  12.0000000   1.0078250  12.0000000   1.0078250
 NucSpn=           1           0           0           0           0           1           0           1           0           1
 AtZEff=  -0.0000000  -0.0000000  -0.0000000  -0.0000000  -0.0000000  -0.0000000  -0.0000000  -0.0000000  -0.0000000  -0.0000000
 NQMom=    0.0000000   0.0000000   0.0000000   0.0000000   0.0000000   0.0000000   0.0000000   0.0000000   0.0000000   0.0000000
 NMagM=    2.7928460   0.0000000   0.0000000   0.0000000   0.0000000   2.7928460   0.0000000   2.7928460   0.0000000   2.7928460
 AtZNuc=   1.0000000   6.0000000   6.0000000   6.0000000   6.0000000   1.0000000   6.0000000   1.0000000   6.0000000   1.0000000

  Atom        41          42          43          44          45          46          47          48          49          50
 IAtWgt=           1          12           1           1          12           1           1          12           1          12
 AtmWgt=   1.0078250  12.0000000   1.0078250   1.0078250  12.0000000   1.0078250   1.0078250  12.0000000   1.0078250  12.0000000
 NucSpn=           1           0           1           1           0           1           1           0           1           0
 AtZEff=  -0.0000000  -0.0000000  -0.0000000  -0.0000000  -0.0000000  -0.0000000  -0.0000000  -0.0000000  -0.0000000  -0.0000000
 NQMom=    0.0000000   0.0000000   0.0000000   0.0000000   0.0000000   0.0000000   0.0000000   0.0000000   0.0000000   0.0000000
 NMagM=    2.7928460   0.0000000   2.7928460   2.7928460   0.0000000   2.7928460   2.7928460   0.0000000   2.7928460   0.0000000
 AtZNuc=   1.0000000   6.0000000   1.0000000   1.0000000   6.0000000   1.0000000   1.0000000   6.0000000   1.0000000   6.0000000

  Atom        51          52          53          54          55          56          57          58          59          60
 IAtWgt=           1          12          12           1           1          12          12           1           1          12
 AtmWgt=   1.0078250  12.0000000  12.0000000   1.0078250   1.0078250  12.0000000  12.0000000   1.0078250   1.0078250  12.0000000
 NucSpn=           1           0           0           1           1           0           0           1           1           0
 AtZEff=  -0.0000000  -0.0000000  -0.0000000  -0.0000000  -0.0000000  -0.0000000  -0.0000000  -0.0000000  -0.0000000  -0.0000000
 NQMom=    0.0000000   0.0000000   0.0000000   0.0000000   0.0000000   0.0000000   0.0000000   0.0000000   0.0000000   0.0000000
 NMagM=    2.7928460   0.0000000   0.0000000   2.7928460   2.7928460   0.0000000   0.0000000   2.7928460   2.7928460   0.0000000
 AtZNuc=   1.0000000   6.0000000   6.0000000   1.0000000   1.0000000   6.0000000   6.0000000   1.0000000   1.0000000   6.0000000

  Atom        61          62          63          64          65          66          67          68          69          70
 IAtWgt=           1          12           1          12          12           1           1          12          12           1
 AtmWgt=   1.0078250  12.0000000   1.0078250  12.0000000  12.0000000   1.0078250   1.0078250  12.0000000  12.0000000   1.0078250
 NucSpn=           1           0           1           0           0           1           1           0           0           1
 AtZEff=  -0.0000000  -0.0000000  -0.0000000  -0.0000000  -0.0000000  -0.0000000  -0.0000000  -0.0000000  -0.0000000  -0.0000000
 NQMom=    0.0000000   0.0000000   0.0000000   0.0000000   0.0000000   0.0000000   0.0000000   0.0000000   0.0000000   0.0000000
 NMagM=    2.7928460   0.0000000   2.7928460   0.0000000   0.0000000   2.7928460   2.7928460   0.0000000   0.0000000   2.7928460
 AtZNuc=   1.0000000   6.0000000   1.0000000   6.0000000   6.0000000   1.0000000   1.0000000   6.0000000   6.0000000   1.0000000

  Atom        71          72          73          74          75          76          77          78          79          80
 IAtWgt=           1          14          14           1           1           1           1           1           1           1
 AtmWgt=   1.0078250  14.0030740  14.0030740   1.0078250   1.0078250   1.0078250   1.0078250   1.0078250   1.0078250   1.0078250
 NucSpn=           1           2           2           1           1           1           1           1           1           1
 AtZEff=  -0.0000000  -0.0000000  -0.0000000  -0.0000000  -0.0000000  -0.0000000  -0.0000000  -0.0000000  -0.0000000  -0.0000000
 NQMom=    0.0000000   2.0440000   2.0440000   0.0000000   0.0000000   0.0000000   0.0000000   0.0000000   0.0000000   0.0000000
 NMagM=    2.7928460   0.4037610   0.4037610   2.7928460   2.7928460   2.7928460   2.7928460   2.7928460   2.7928460   2.7928460
 AtZNuc=   1.0000000   7.0000000   7.0000000   1.0000000   1.0000000   1.0000000   1.0000000   1.0000000   1.0000000   1.0000000

  Atom        81          82          83          84          85          86          87          88          89          90
 IAtWgt=           1           1           1           1           1           1           1           1           1           1
 AtmWgt=   1.0078250   1.0078250   1.0078250   1.0078250   1.0078250   1.0078250   1.0078250   1.0078250   1.0078250   1.0078250
 NucSpn=           1           1           1           1           1           1           1           1           1           1
 AtZEff=  -0.0000000  -0.0000000  -0.0000000  -0.0000000  -0.0000000  -0.0000000  -0.0000000  -0.0000000  -0.0000000  -0.0000000
 NQMom=    0.0000000   0.0000000   0.0000000   0.0000000   0.0000000   0.0000000   0.0000000   0.0000000   0.0000000   0.0000000
 NMagM=    2.7928460   2.7928460   2.7928460   2.7928460   2.7928460   2.7928460   2.7928460   2.7928460   2.7928460   2.7928460
 AtZNuc=   1.0000000   1.0000000   1.0000000   1.0000000   1.0000000   1.0000000   1.0000000   1.0000000   1.0000000   1.0000000

  Atom        91          92          93          94          95          96          97          98          99         100
 IAtWgt=           1          12          16          16          16          16           1           1          16           1
 AtmWgt=   1.0078250  12.0000000  15.9949146  15.9949146  15.9949146  15.9949146   1.0078250   1.0078250  15.9949146   1.0078250
 NucSpn=           1           0           0           0           0           0           1           1           0           1
 AtZEff=  -0.0000000  -0.0000000  -0.0000000  -0.0000000  -0.0000000  -0.0000000  -0.0000000  -0.0000000  -0.0000000  -0.0000000
 NQMom=    0.0000000   0.0000000   0.0000000   0.0000000   0.0000000   0.0000000   0.0000000   0.0000000   0.0000000   0.0000000
 NMagM=    2.7928460   0.0000000   0.0000000   0.0000000   0.0000000   0.0000000   2.7928460   2.7928460   0.0000000   2.7928460
 AtZNuc=   1.0000000   6.0000000   8.0000000   8.0000000   8.0000000   8.0000000   1.0000000   1.0000000   8.0000000   1.0000000

  Atom       101         102         103         104         105         106         107
 IAtWgt=           1          16           1           1          16           1           1
 AtmWgt=   1.0078250  15.9949146   1.0078250   1.0078250  15.9949146   1.0078250   1.0078250
 NucSpn=           1           0           1           1           0           1           1
 AtZEff=  -0.0000000  -0.0000000  -0.0000000  -0.0000000  -0.0000000  -0.0000000  -0.0000000
 NQMom=    0.0000000   0.0000000   0.0000000   0.0000000   0.0000000   0.0000000   0.0000000
 NMagM=    2.7928460   0.0000000   2.7928460   2.7928460   0.0000000   2.7928460   2.7928460
 AtZNuc=   1.0000000   8.0000000   1.0000000   1.0000000   8.0000000   1.0000000   1.0000000
 Leave Link  101 at Tue May  7 19:33:29 2024, MaxMem=  2415919104 cpu:              16.7 elap:               0.6
 (Enter /packages/apps/gaussian/g16/g16/l103.exe)

 GradGradGradGradGradGradGradGradGradGradGradGradGradGradGradGradGradGrad
 Berny optimization.
 Initialization pass.
                           ----------------------------
                           !    Initial Parameters    !
                           ! (Angstroms and Degrees)  !
 --------------------------                            --------------------------
 ! Name  Definition              Value          Derivative Info.                !
 --------------------------------------------------------------------------------
 ! R1    R(1,2)                  1.5239         estimate D2E/DX2                !
 ! R2    R(1,3)                  1.0901         estimate D2E/DX2                !
 ! R3    R(1,4)                  1.0902         estimate D2E/DX2                !
 ! R4    R(1,5)                  1.0919         estimate D2E/DX2                !
 ! R5    R(2,6)                  1.539          estimate D2E/DX2                !
 ! R6    R(2,7)                  1.0939         estimate D2E/DX2                !
 ! R7    R(2,8)                  1.0926         estimate D2E/DX2                !
 ! R8    R(6,9)                  1.5391         estimate D2E/DX2                !
 ! R9    R(6,10)                 1.0951         estimate D2E/DX2                !
 ! R10   R(6,32)                 1.5172         estimate D2E/DX2                !
 ! R11   R(9,11)                 1.0937         estimate D2E/DX2                !
 ! R12   R(9,12)                 1.0932         estimate D2E/DX2                !
 ! R13   R(9,13)                 1.5373         estimate D2E/DX2                !
 ! R14   R(13,14)                1.5363         estimate D2E/DX2                !
 ! R15   R(13,15)                1.0952         estimate D2E/DX2                !
 ! R16   R(13,22)                1.5131         estimate D2E/DX2                !
 ! R17   R(14,16)                1.0937         estimate D2E/DX2                !
 ! R18   R(14,17)                1.093          estimate D2E/DX2                !
 ! R19   R(14,18)                1.5239         estimate D2E/DX2                !
 ! R20   R(18,19)                1.09           estimate D2E/DX2                !
 ! R21   R(18,20)                1.0919         estimate D2E/DX2                !
 ! R22   R(18,21)                1.0904         estimate D2E/DX2                !
 ! R23   R(22,23)                1.3892         estimate D2E/DX2                !
 ! R24   R(22,24)                1.3918         estimate D2E/DX2                !
 ! R25   R(23,25)                1.3869         estimate D2E/DX2                !
 ! R26   R(23,26)                1.0834         estimate D2E/DX2                !
 ! R27   R(24,27)                1.3822         estimate D2E/DX2                !
 ! R28   R(24,28)                1.0825         estimate D2E/DX2                !
 ! R29   R(25,29)                1.3906         estimate D2E/DX2                !
 ! R30   R(25,30)                1.0837         estimate D2E/DX2                !
 ! R31   R(27,29)                1.393          estimate D2E/DX2                !
 ! R32   R(27,31)                1.0824         estimate D2E/DX2                !
 ! R33   R(29,45)                1.4988         estimate D2E/DX2                !
 ! R34   R(32,33)                1.3892         estimate D2E/DX2                !
 ! R35   R(32,34)                1.3938         estimate D2E/DX2                !
 ! R36   R(33,35)                1.387          estimate D2E/DX2                !
 ! R37   R(33,36)                1.0824         estimate D2E/DX2                !
 ! R38   R(34,37)                1.3829         estimate D2E/DX2                !
 ! R39   R(34,38)                1.0831         estimate D2E/DX2                !
 ! R40   R(35,39)                1.3896         estimate D2E/DX2                !
 ! R41   R(35,40)                1.084          estimate D2E/DX2                !
 ! R42   R(37,39)                1.3929         estimate D2E/DX2                !
 ! R43   R(37,41)                1.083          estimate D2E/DX2                !
 ! R44   R(39,42)                1.4967         estimate D2E/DX2                !
 ! R45   R(42,43)                1.0857         estimate D2E/DX2                !
 ! R46   R(42,44)                1.0857         estimate D2E/DX2                !
 ! R47   R(42,72)                1.5279         estimate D2E/DX2                !
 ! R48   R(45,46)                1.0813         estimate D2E/DX2                !
 ! R49   R(45,47)                1.0954         estimate D2E/DX2                !
 ! R50   R(45,73)                1.5268         estimate D2E/DX2                !
 ! R51   R(47,93)                1.9557         estimate D2E/DX2                !
 ! R52   R(48,49)                1.0906         estimate D2E/DX2                !
 ! R53   R(48,50)                1.5156         estimate D2E/DX2                !
 ! R54   R(48,51)                1.0907         estimate D2E/DX2                !
 ! R55   R(48,72)                1.5236         estimate D2E/DX2                !
 ! R56   R(50,86)                1.09           estimate D2E/DX2                !
 ! R57   R(50,87)                1.0886         estimate D2E/DX2                !
 ! R58   R(50,88)                1.0884         estimate D2E/DX2                !
 ! R59   R(51,95)                2.0589         estimate D2E/DX2                !
 ! R60   R(52,53)                1.522          estimate D2E/DX2                !
 ! R61   R(52,54)                1.0867         estimate D2E/DX2                !
 ! R62   R(52,55)                1.0887         estimate D2E/DX2                !
 ! R63   R(52,72)                1.5112         estimate D2E/DX2                !
 ! R64   R(53,89)                1.0901         estimate D2E/DX2                !
 ! R65   R(53,90)                1.0856         estimate D2E/DX2                !
 ! R66   R(53,91)                1.0881         estimate D2E/DX2                !
 ! R67   R(56,57)                1.5137         estimate D2E/DX2                !
 ! R68   R(56,58)                1.0867         estimate D2E/DX2                !
 ! R69   R(56,59)                1.0906         estimate D2E/DX2                !
 ! R70   R(56,72)                1.5069         estimate D2E/DX2                !
 ! R71   R(57,83)                1.0858         estimate D2E/DX2                !
 ! R72   R(57,84)                1.0899         estimate D2E/DX2                !
 ! R73   R(57,85)                1.0859         estimate D2E/DX2                !
 ! R74   R(60,61)                1.091          estimate D2E/DX2                !
 ! R75   R(60,62)                1.5156         estimate D2E/DX2                !
 ! R76   R(60,63)                1.0898         estimate D2E/DX2                !
 ! R77   R(60,73)                1.5224         estimate D2E/DX2                !
 ! R78   R(62,80)                1.0854         estimate D2E/DX2                !
 ! R79   R(62,81)                1.0887         estimate D2E/DX2                !
 ! R80   R(62,82)                1.0895         estimate D2E/DX2                !
 ! R81   R(64,65)                1.5177         estimate D2E/DX2                !
 ! R82   R(64,66)                1.086          estimate D2E/DX2                !
 ! R83   R(64,67)                1.0903         estimate D2E/DX2                !
 ! R84   R(64,73)                1.5058         estimate D2E/DX2                !
 ! R85   R(65,77)                1.0899         estimate D2E/DX2                !
 ! R86   R(65,78)                1.0869         estimate D2E/DX2                !
 ! R87   R(65,79)                1.0875         estimate D2E/DX2                !
 ! R88   R(68,69)                1.5209         estimate D2E/DX2                !
 ! R89   R(68,70)                1.0883         estimate D2E/DX2                !
 ! R90   R(68,71)                1.0898         estimate D2E/DX2                !
 ! R91   R(68,73)                1.5134         estimate D2E/DX2                !
 ! R92   R(69,74)                1.0884         estimate D2E/DX2                !
 ! R93   R(69,75)                1.0899         estimate D2E/DX2                !
 ! R94   R(69,76)                1.0856         estimate D2E/DX2                !
 ! R95   R(92,93)                1.298          estimate D2E/DX2                !
 ! R96   R(92,94)                1.3117         estimate D2E/DX2                !
 ! R97   R(92,95)                1.2499         estimate D2E/DX2                !
 ! R98   R(93,100)               1.5926         estimate D2E/DX2                !
 ! R99   R(94,98)                1.6296         estimate D2E/DX2                !
 ! R100  R(94,104)               1.643          estimate D2E/DX2                !
 ! R101  R(96,97)                0.9662         estimate D2E/DX2                !
 ! R102  R(96,98)                0.9959         estimate D2E/DX2                !
 ! R103  R(96,106)               1.7556         estimate D2E/DX2                !
 ! R104  R(99,100)               1.0061         estimate D2E/DX2                !
 ! R105  R(99,101)               0.956          estimate D2E/DX2                !
 ! R106  R(102,103)              0.9551         estimate D2E/DX2                !
 ! R107  R(102,104)              0.9996         estimate D2E/DX2                !
 ! R108  R(105,106)              0.982          estimate D2E/DX2                !
 ! R109  R(105,107)              0.9556         estimate D2E/DX2                !
 ! A1    A(2,1,3)              110.9586         estimate D2E/DX2                !
 ! A2    A(2,1,4)              111.3566         estimate D2E/DX2                !
 ! A3    A(2,1,5)              110.9104         estimate D2E/DX2                !
 ! A4    A(3,1,4)              108.0173         estimate D2E/DX2                !
 ! A5    A(3,1,5)              107.88           estimate D2E/DX2                !
 ! A6    A(4,1,5)              107.5641         estimate D2E/DX2                !
 ! A7    A(1,2,6)              113.9714         estimate D2E/DX2                !
 ! A8    A(1,2,7)              109.7256         estimate D2E/DX2                !
 ! A9    A(1,2,8)              109.3785         estimate D2E/DX2                !
 ! A10   A(6,2,7)              109.0024         estimate D2E/DX2                !
 ! A11   A(6,2,8)              108.2103         estimate D2E/DX2                !
 ! A12   A(7,2,8)              106.258          estimate D2E/DX2                !
 ! A13   A(2,6,9)              110.1136         estimate D2E/DX2                !
 ! A14   A(2,6,10)             107.204          estimate D2E/DX2                !
 ! A15   A(2,6,32)             110.6188         estimate D2E/DX2                !
 ! A16   A(9,6,10)             107.6082         estimate D2E/DX2                !
 ! A17   A(9,6,32)             113.8002         estimate D2E/DX2                !
 ! A18   A(10,6,32)            107.1969         estimate D2E/DX2                !
 ! A19   A(6,9,11)             109.6469         estimate D2E/DX2                !
 ! A20   A(6,9,12)             107.9957         estimate D2E/DX2                !
 ! A21   A(6,9,13)             116.0956         estimate D2E/DX2                !
 ! A22   A(11,9,12)            105.745          estimate D2E/DX2                !
 ! A23   A(11,9,13)            109.6377         estimate D2E/DX2                !
 ! A24   A(12,9,13)            107.182          estimate D2E/DX2                !
 ! A25   A(9,13,14)            110.2671         estimate D2E/DX2                !
 ! A26   A(9,13,15)            107.1828         estimate D2E/DX2                !
 ! A27   A(9,13,22)            112.8794         estimate D2E/DX2                !
 ! A28   A(14,13,15)           107.3852         estimate D2E/DX2                !
 ! A29   A(14,13,22)           111.6393         estimate D2E/DX2                !
 ! A30   A(15,13,22)           107.1852         estimate D2E/DX2                !
 ! A31   A(13,14,16)           108.9916         estimate D2E/DX2                !
 ! A32   A(13,14,17)           108.4676         estimate D2E/DX2                !
 ! A33   A(13,14,18)           113.598          estimate D2E/DX2                !
 ! A34   A(16,14,17)           106.2842         estimate D2E/DX2                !
 ! A35   A(16,14,18)           109.6672         estimate D2E/DX2                !
 ! A36   A(17,14,18)           109.5668         estimate D2E/DX2                !
 ! A37   A(14,18,19)           111.0707         estimate D2E/DX2                !
 ! A38   A(14,18,20)           110.9305         estimate D2E/DX2                !
 ! A39   A(14,18,21)           111.1839         estimate D2E/DX2                !
 ! A40   A(19,18,20)           107.8503         estimate D2E/DX2                !
 ! A41   A(19,18,21)           108.0215         estimate D2E/DX2                !
 ! A42   A(20,18,21)           107.6324         estimate D2E/DX2                !
 ! A43   A(13,22,23)           121.1124         estimate D2E/DX2                !
 ! A44   A(13,22,24)           120.7387         estimate D2E/DX2                !
 ! A45   A(23,22,24)           118.0985         estimate D2E/DX2                !
 ! A46   A(22,23,25)           121.1714         estimate D2E/DX2                !
 ! A47   A(22,23,26)           119.3828         estimate D2E/DX2                !
 ! A48   A(25,23,26)           119.4161         estimate D2E/DX2                !
 ! A49   A(22,24,27)           121.0333         estimate D2E/DX2                !
 ! A50   A(22,24,28)           119.8906         estimate D2E/DX2                !
 ! A51   A(27,24,28)           118.9818         estimate D2E/DX2                !
 ! A52   A(23,25,29)           120.4447         estimate D2E/DX2                !
 ! A53   A(23,25,30)           120.1706         estimate D2E/DX2                !
 ! A54   A(29,25,30)           119.3698         estimate D2E/DX2                !
 ! A55   A(24,27,29)           120.6725         estimate D2E/DX2                !
 ! A56   A(24,27,31)           119.5294         estimate D2E/DX2                !
 ! A57   A(29,27,31)           119.7449         estimate D2E/DX2                !
 ! A58   A(25,29,27)           118.5472         estimate D2E/DX2                !
 ! A59   A(25,29,45)           120.7397         estimate D2E/DX2                !
 ! A60   A(27,29,45)           120.5205         estimate D2E/DX2                !
 ! A61   A(6,32,33)            120.9299         estimate D2E/DX2                !
 ! A62   A(6,32,34)            121.111          estimate D2E/DX2                !
 ! A63   A(33,32,34)           117.9588         estimate D2E/DX2                !
 ! A64   A(32,33,35)           121.323          estimate D2E/DX2                !
 ! A65   A(32,33,36)           119.3757         estimate D2E/DX2                !
 ! A66   A(35,33,36)           119.2797         estimate D2E/DX2                !
 ! A67   A(32,34,37)           121.016          estimate D2E/DX2                !
 ! A68   A(32,34,38)           119.8744         estimate D2E/DX2                !
 ! A69   A(37,34,38)           119.0927         estimate D2E/DX2                !
 ! A70   A(33,35,39)           120.3656         estimate D2E/DX2                !
 ! A71   A(33,35,40)           119.7221         estimate D2E/DX2                !
 ! A72   A(39,35,40)           119.8865         estimate D2E/DX2                !
 ! A73   A(34,37,39)           120.6588         estimate D2E/DX2                !
 ! A74   A(34,37,41)           120.0993         estimate D2E/DX2                !
 ! A75   A(39,37,41)           119.2332         estimate D2E/DX2                !
 ! A76   A(35,39,37)           118.5867         estimate D2E/DX2                !
 ! A77   A(35,39,42)           121.097          estimate D2E/DX2                !
 ! A78   A(37,39,42)           120.3006         estimate D2E/DX2                !
 ! A79   A(39,42,43)           110.0852         estimate D2E/DX2                !
 ! A80   A(39,42,44)           111.119          estimate D2E/DX2                !
 ! A81   A(39,42,72)           115.4781         estimate D2E/DX2                !
 ! A82   A(43,42,44)           107.8765         estimate D2E/DX2                !
 ! A83   A(43,42,72)           106.1219         estimate D2E/DX2                !
 ! A84   A(44,42,72)           105.761          estimate D2E/DX2                !
 ! A85   A(29,45,46)           109.7184         estimate D2E/DX2                !
 ! A86   A(29,45,47)           111.8793         estimate D2E/DX2                !
 ! A87   A(29,45,73)           116.8672         estimate D2E/DX2                !
 ! A88   A(46,45,47)           107.8283         estimate D2E/DX2                !
 ! A89   A(46,45,73)           104.4636         estimate D2E/DX2                !
 ! A90   A(47,45,73)           105.4961         estimate D2E/DX2                !
 ! A91   A(45,47,93)           164.7088         estimate D2E/DX2                !
 ! A92   A(49,48,50)           111.1561         estimate D2E/DX2                !
 ! A93   A(49,48,51)           110.4738         estimate D2E/DX2                !
 ! A94   A(49,48,72)           105.3717         estimate D2E/DX2                !
 ! A95   A(50,48,51)           107.3772         estimate D2E/DX2                !
 ! A96   A(50,48,72)           115.3964         estimate D2E/DX2                !
 ! A97   A(51,48,72)           106.9849         estimate D2E/DX2                !
 ! A98   A(48,50,86)           113.6606         estimate D2E/DX2                !
 ! A99   A(48,50,87)           106.2006         estimate D2E/DX2                !
 ! A100  A(48,50,88)           111.8177         estimate D2E/DX2                !
 ! A101  A(86,50,87)           108.5328         estimate D2E/DX2                !
 ! A102  A(86,50,88)           110.1467         estimate D2E/DX2                !
 ! A103  A(87,50,88)           106.0695         estimate D2E/DX2                !
 ! A104  A(48,51,95)           137.905          estimate D2E/DX2                !
 ! A105  A(53,52,54)           110.7664         estimate D2E/DX2                !
 ! A106  A(53,52,55)           108.6986         estimate D2E/DX2                !
 ! A107  A(53,52,72)           117.6884         estimate D2E/DX2                !
 ! A108  A(54,52,55)           107.5396         estimate D2E/DX2                !
 ! A109  A(54,52,72)           105.9667         estimate D2E/DX2                !
 ! A110  A(55,52,72)           105.6647         estimate D2E/DX2                !
 ! A111  A(52,53,89)           107.0254         estimate D2E/DX2                !
 ! A112  A(52,53,90)           113.2304         estimate D2E/DX2                !
 ! A113  A(52,53,91)           112.1366         estimate D2E/DX2                !
 ! A114  A(89,53,90)           107.6908         estimate D2E/DX2                !
 ! A115  A(89,53,91)           107.3946         estimate D2E/DX2                !
 ! A116  A(90,53,91)           109.085          estimate D2E/DX2                !
 ! A117  A(57,56,58)           110.077          estimate D2E/DX2                !
 ! A118  A(57,56,59)           110.6704         estimate D2E/DX2                !
 ! A119  A(57,56,72)           115.7959         estimate D2E/DX2                !
 ! A120  A(58,56,59)           107.9639         estimate D2E/DX2                !
 ! A121  A(58,56,72)           106.4346         estimate D2E/DX2                !
 ! A122  A(59,56,72)           105.5126         estimate D2E/DX2                !
 ! A123  A(56,57,83)           113.7126         estimate D2E/DX2                !
 ! A124  A(56,57,84)           107.432          estimate D2E/DX2                !
 ! A125  A(56,57,85)           112.6182         estimate D2E/DX2                !
 ! A126  A(83,57,84)           107.8119         estimate D2E/DX2                !
 ! A127  A(83,57,85)           107.6529         estimate D2E/DX2                !
 ! A128  A(84,57,85)           107.334          estimate D2E/DX2                !
 ! A129  A(61,60,62)           110.6262         estimate D2E/DX2                !
 ! A130  A(61,60,63)           109.9153         estimate D2E/DX2                !
 ! A131  A(61,60,73)           105.199          estimate D2E/DX2                !
 ! A132  A(62,60,63)           109.5767         estimate D2E/DX2                !
 ! A133  A(62,60,73)           115.8146         estimate D2E/DX2                !
 ! A134  A(63,60,73)           105.4635         estimate D2E/DX2                !
 ! A135  A(60,62,80)           111.9189         estimate D2E/DX2                !
 ! A136  A(60,62,81)           113.5396         estimate D2E/DX2                !
 ! A137  A(60,62,82)           106.4311         estimate D2E/DX2                !
 ! A138  A(80,62,81)           109.9857         estimate D2E/DX2                !
 ! A139  A(80,62,82)           106.4469         estimate D2E/DX2                !
 ! A140  A(81,62,82)           108.1368         estimate D2E/DX2                !
 ! A141  A(65,64,66)           110.4116         estimate D2E/DX2                !
 ! A142  A(65,64,67)           110.3346         estimate D2E/DX2                !
 ! A143  A(65,64,73)           116.0285         estimate D2E/DX2                !
 ! A144  A(66,64,67)           107.7996         estimate D2E/DX2                !
 ! A145  A(66,64,73)           106.1691         estimate D2E/DX2                !
 ! A146  A(67,64,73)           105.6794         estimate D2E/DX2                !
 ! A147  A(64,65,77)           107.5143         estimate D2E/DX2                !
 ! A148  A(64,65,78)           113.1775         estimate D2E/DX2                !
 ! A149  A(64,65,79)           112.1549         estimate D2E/DX2                !
 ! A150  A(77,65,78)           109.0216         estimate D2E/DX2                !
 ! A151  A(77,65,79)           108.0274         estimate D2E/DX2                !
 ! A152  A(78,65,79)           106.8109         estimate D2E/DX2                !
 ! A153  A(69,68,70)           110.5389         estimate D2E/DX2                !
 ! A154  A(69,68,71)           108.9393         estimate D2E/DX2                !
 ! A155  A(69,68,73)           117.0564         estimate D2E/DX2                !
 ! A156  A(70,68,71)           108.2107         estimate D2E/DX2                !
 ! A157  A(70,68,73)           105.9969         estimate D2E/DX2                !
 ! A158  A(71,68,73)           105.6999         estimate D2E/DX2                !
 ! A159  A(68,69,74)           112.6084         estimate D2E/DX2                !
 ! A160  A(68,69,75)           106.9743         estimate D2E/DX2                !
 ! A161  A(68,69,76)           112.8982         estimate D2E/DX2                !
 ! A162  A(74,69,75)           107.4675         estimate D2E/DX2                !
 ! A163  A(74,69,76)           108.9774         estimate D2E/DX2                !
 ! A164  A(75,69,76)           107.6377         estimate D2E/DX2                !
 ! A165  A(42,72,48)           106.9407         estimate D2E/DX2                !
 ! A166  A(42,72,52)           112.1283         estimate D2E/DX2                !
 ! A167  A(42,72,56)           111.5338         estimate D2E/DX2                !
 ! A168  A(48,72,52)           108.4511         estimate D2E/DX2                !
 ! A169  A(48,72,56)           108.4917         estimate D2E/DX2                !
 ! A170  A(52,72,56)           109.1659         estimate D2E/DX2                !
 ! A171  A(45,73,60)           106.6085         estimate D2E/DX2                !
 ! A172  A(45,73,64)           112.1542         estimate D2E/DX2                !
 ! A173  A(45,73,68)           111.4664         estimate D2E/DX2                !
 ! A174  A(60,73,64)           108.2126         estimate D2E/DX2                !
 ! A175  A(60,73,68)           108.8333         estimate D2E/DX2                !
 ! A176  A(64,73,68)           109.4283         estimate D2E/DX2                !
 ! A177  A(93,92,94)           116.6959         estimate D2E/DX2                !
 ! A178  A(93,92,95)           122.4359         estimate D2E/DX2                !
 ! A179  A(94,92,95)           120.8325         estimate D2E/DX2                !
 ! A180  A(47,93,92)           107.6671         estimate D2E/DX2                !
 ! A181  A(47,93,100)          116.2155         estimate D2E/DX2                !
 ! A182  A(92,93,100)          115.2323         estimate D2E/DX2                !
 ! A183  A(92,94,98)           146.052          estimate D2E/DX2                !
 ! A184  A(92,94,104)          124.3079         estimate D2E/DX2                !
 ! A185  A(98,94,104)           82.7245         estimate D2E/DX2                !
 ! A186  A(51,95,92)           107.7726         estimate D2E/DX2                !
 ! A187  A(97,96,98)           100.0067         estimate D2E/DX2                !
 ! A188  A(97,96,106)          111.9848         estimate D2E/DX2                !
 ! A189  A(98,96,106)          116.3762         estimate D2E/DX2                !
 ! A190  A(94,98,96)           159.4524         estimate D2E/DX2                !
 ! A191  A(100,99,101)         104.2017         estimate D2E/DX2                !
 ! A192  A(103,102,104)        105.4468         estimate D2E/DX2                !
 ! A193  A(94,104,102)         160.8501         estimate D2E/DX2                !
 ! A194  A(106,105,107)        105.6747         estimate D2E/DX2                !
 ! A195  L(93,100,99,1,-1)     172.307          estimate D2E/DX2                !
 ! A196  L(96,106,105,2,-1)    177.463          estimate D2E/DX2                !
 ! A197  L(93,100,99,1,-2)     176.935          estimate D2E/DX2                !
 ! A198  L(96,106,105,2,-2)    186.3294         estimate D2E/DX2                !
 ! D1    D(3,1,2,6)            176.6199         estimate D2E/DX2                !
 ! D2    D(3,1,2,7)            -60.8337         estimate D2E/DX2                !
 ! D3    D(3,1,2,8)             55.3592         estimate D2E/DX2                !
 ! D4    D(4,1,2,6)            -63.0212         estimate D2E/DX2                !
 ! D5    D(4,1,2,7)             59.5252         estimate D2E/DX2                !
 ! D6    D(4,1,2,8)            175.7181         estimate D2E/DX2                !
 ! D7    D(5,1,2,6)             56.7321         estimate D2E/DX2                !
 ! D8    D(5,1,2,7)            179.2785         estimate D2E/DX2                !
 ! D9    D(5,1,2,8)            -64.5287         estimate D2E/DX2                !
 ! D10   D(1,2,6,9)           -176.9339         estimate D2E/DX2                !
 ! D11   D(1,2,6,10)           -60.1496         estimate D2E/DX2                !
 ! D12   D(1,2,6,32)            56.4136         estimate D2E/DX2                !
 ! D13   D(7,2,6,9)             60.1244         estimate D2E/DX2                !
 ! D14   D(7,2,6,10)           176.9088         estimate D2E/DX2                !
 ! D15   D(7,2,6,32)           -66.528          estimate D2E/DX2                !
 ! D16   D(8,2,6,9)            -55.0265         estimate D2E/DX2                !
 ! D17   D(8,2,6,10)            61.7578         estimate D2E/DX2                !
 ! D18   D(8,2,6,32)           178.321          estimate D2E/DX2                !
 ! D19   D(2,6,9,11)           -77.4624         estimate D2E/DX2                !
 ! D20   D(2,6,9,12)            37.304          estimate D2E/DX2                !
 ! D21   D(2,6,9,13)           157.6329         estimate D2E/DX2                !
 ! D22   D(10,6,9,11)          166.0056         estimate D2E/DX2                !
 ! D23   D(10,6,9,12)          -79.228          estimate D2E/DX2                !
 ! D24   D(10,6,9,13)           41.101          estimate D2E/DX2                !
 ! D25   D(32,6,9,11)           47.3854         estimate D2E/DX2                !
 ! D26   D(32,6,9,12)          162.1518         estimate D2E/DX2                !
 ! D27   D(32,6,9,13)          -77.5192         estimate D2E/DX2                !
 ! D28   D(2,6,32,33)         -114.4137         estimate D2E/DX2                !
 ! D29   D(2,6,32,34)           65.3846         estimate D2E/DX2                !
 ! D30   D(9,6,32,33)          121.0091         estimate D2E/DX2                !
 ! D31   D(9,6,32,34)          -59.1925         estimate D2E/DX2                !
 ! D32   D(10,6,32,33)           2.1539         estimate D2E/DX2                !
 ! D33   D(10,6,32,34)        -178.0478         estimate D2E/DX2                !
 ! D34   D(6,9,13,14)         -175.538          estimate D2E/DX2                !
 ! D35   D(6,9,13,15)          -58.9497         estimate D2E/DX2                !
 ! D36   D(6,9,13,22)           58.8359         estimate D2E/DX2                !
 ! D37   D(11,9,13,14)          59.5526         estimate D2E/DX2                !
 ! D38   D(11,9,13,15)         176.141          estimate D2E/DX2                !
 ! D39   D(11,9,13,22)         -66.0735         estimate D2E/DX2                !
 ! D40   D(12,9,13,14)         -54.772          estimate D2E/DX2                !
 ! D41   D(12,9,13,15)          61.8164         estimate D2E/DX2                !
 ! D42   D(12,9,13,22)         179.602          estimate D2E/DX2                !
 ! D43   D(9,13,14,16)         -63.093          estimate D2E/DX2                !
 ! D44   D(9,13,14,17)          52.2212         estimate D2E/DX2                !
 ! D45   D(9,13,14,18)         174.3079         estimate D2E/DX2                !
 ! D46   D(15,13,14,16)       -179.5552         estimate D2E/DX2                !
 ! D47   D(15,13,14,17)        -64.241          estimate D2E/DX2                !
 ! D48   D(15,13,14,18)         57.8457         estimate D2E/DX2                !
 ! D49   D(22,13,14,16)         63.2324         estimate D2E/DX2                !
 ! D50   D(22,13,14,17)        178.5466         estimate D2E/DX2                !
 ! D51   D(22,13,14,18)        -59.3668         estimate D2E/DX2                !
 ! D52   D(9,13,22,23)        -119.2736         estimate D2E/DX2                !
 ! D53   D(9,13,22,24)          58.093          estimate D2E/DX2                !
 ! D54   D(14,13,22,23)        115.8437         estimate D2E/DX2                !
 ! D55   D(14,13,22,24)        -66.7897         estimate D2E/DX2                !
 ! D56   D(15,13,22,23)         -1.4895         estimate D2E/DX2                !
 ! D57   D(15,13,22,24)        175.8772         estimate D2E/DX2                !
 ! D58   D(13,14,18,19)       -178.1269         estimate D2E/DX2                !
 ! D59   D(13,14,18,20)        -58.189          estimate D2E/DX2                !
 ! D60   D(13,14,18,21)         61.5494         estimate D2E/DX2                !
 ! D61   D(16,14,18,19)         59.6472         estimate D2E/DX2                !
 ! D62   D(16,14,18,20)        179.5852         estimate D2E/DX2                !
 ! D63   D(16,14,18,21)        -60.6765         estimate D2E/DX2                !
 ! D64   D(17,14,18,19)        -56.6518         estimate D2E/DX2                !
 ! D65   D(17,14,18,20)         63.2862         estimate D2E/DX2                !
 ! D66   D(17,14,18,21)       -176.9755         estimate D2E/DX2                !
 ! D67   D(13,22,23,25)        176.2161         estimate D2E/DX2                !
 ! D68   D(13,22,23,26)         -1.7912         estimate D2E/DX2                !
 ! D69   D(24,22,23,25)         -1.2182         estimate D2E/DX2                !
 ! D70   D(24,22,23,26)       -179.2254         estimate D2E/DX2                !
 ! D71   D(13,22,24,27)       -175.4958         estimate D2E/DX2                !
 ! D72   D(13,22,24,28)          0.9371         estimate D2E/DX2                !
 ! D73   D(23,22,24,27)          1.9485         estimate D2E/DX2                !
 ! D74   D(23,22,24,28)        178.3813         estimate D2E/DX2                !
 ! D75   D(22,23,25,29)          0.5717         estimate D2E/DX2                !
 ! D76   D(22,23,25,30)       -178.017          estimate D2E/DX2                !
 ! D77   D(26,23,25,29)        178.5782         estimate D2E/DX2                !
 ! D78   D(26,23,25,30)         -0.0104         estimate D2E/DX2                !
 ! D79   D(22,24,27,29)         -2.0426         estimate D2E/DX2                !
 ! D80   D(22,24,27,31)        175.2966         estimate D2E/DX2                !
 ! D81   D(28,24,27,29)       -178.5073         estimate D2E/DX2                !
 ! D82   D(28,24,27,31)         -1.1681         estimate D2E/DX2                !
 ! D83   D(23,25,29,27)         -0.6001         estimate D2E/DX2                !
 ! D84   D(23,25,29,45)       -175.5834         estimate D2E/DX2                !
 ! D85   D(30,25,29,27)        177.9998         estimate D2E/DX2                !
 ! D86   D(30,25,29,45)          3.0165         estimate D2E/DX2                !
 ! D87   D(24,27,29,25)          1.3283         estimate D2E/DX2                !
 ! D88   D(24,27,29,45)        176.323          estimate D2E/DX2                !
 ! D89   D(31,27,29,25)       -176.0052         estimate D2E/DX2                !
 ! D90   D(31,27,29,45)         -1.0105         estimate D2E/DX2                !
 ! D91   D(25,29,45,46)         20.719          estimate D2E/DX2                !
 ! D92   D(25,29,45,47)        140.35           estimate D2E/DX2                !
 ! D93   D(25,29,45,73)        -97.9014         estimate D2E/DX2                !
 ! D94   D(27,29,45,46)       -154.1652         estimate D2E/DX2                !
 ! D95   D(27,29,45,47)        -34.5342         estimate D2E/DX2                !
 ! D96   D(27,29,45,73)         87.2144         estimate D2E/DX2                !
 ! D97   D(6,32,33,35)         178.9427         estimate D2E/DX2                !
 ! D98   D(6,32,33,36)          -2.7612         estimate D2E/DX2                !
 ! D99   D(34,32,33,35)         -0.8618         estimate D2E/DX2                !
 ! D100  D(34,32,33,36)        177.4343         estimate D2E/DX2                !
 ! D101  D(6,32,34,37)        -179.3858         estimate D2E/DX2                !
 ! D102  D(6,32,34,38)           2.1272         estimate D2E/DX2                !
 ! D103  D(33,32,34,37)          0.4184         estimate D2E/DX2                !
 ! D104  D(33,32,34,38)       -178.0686         estimate D2E/DX2                !
 ! D105  D(32,33,35,39)         -0.9318         estimate D2E/DX2                !
 ! D106  D(32,33,35,40)        177.2171         estimate D2E/DX2                !
 ! D107  D(36,33,35,39)       -179.2294         estimate D2E/DX2                !
 ! D108  D(36,33,35,40)         -1.0806         estimate D2E/DX2                !
 ! D109  D(32,34,37,39)          1.8227         estimate D2E/DX2                !
 ! D110  D(32,34,37,41)       -177.0966         estimate D2E/DX2                !
 ! D111  D(38,34,37,39)       -179.6787         estimate D2E/DX2                !
 ! D112  D(38,34,37,41)          1.402          estimate D2E/DX2                !
 ! D113  D(33,35,39,37)          3.1208         estimate D2E/DX2                !
 ! D114  D(33,35,39,42)       -178.3191         estimate D2E/DX2                !
 ! D115  D(40,35,39,37)       -175.025          estimate D2E/DX2                !
 ! D116  D(40,35,39,42)          3.5351         estimate D2E/DX2                !
 ! D117  D(34,37,39,35)         -3.5681         estimate D2E/DX2                !
 ! D118  D(34,37,39,42)        177.8599         estimate D2E/DX2                !
 ! D119  D(41,37,39,35)        175.3605         estimate D2E/DX2                !
 ! D120  D(41,37,39,42)         -3.2115         estimate D2E/DX2                !
 ! D121  D(35,39,42,43)       -152.0284         estimate D2E/DX2                !
 ! D122  D(35,39,42,44)        -32.5819         estimate D2E/DX2                !
 ! D123  D(35,39,42,72)         87.8557         estimate D2E/DX2                !
 ! D124  D(37,39,42,43)         26.5072         estimate D2E/DX2                !
 ! D125  D(37,39,42,44)        145.9537         estimate D2E/DX2                !
 ! D126  D(37,39,42,72)        -93.6087         estimate D2E/DX2                !
 ! D127  D(39,42,72,48)        172.1873         estimate D2E/DX2                !
 ! D128  D(39,42,72,52)         53.4354         estimate D2E/DX2                !
 ! D129  D(39,42,72,56)        -69.3475         estimate D2E/DX2                !
 ! D130  D(43,42,72,48)         49.9303         estimate D2E/DX2                !
 ! D131  D(43,42,72,52)        -68.8217         estimate D2E/DX2                !
 ! D132  D(43,42,72,56)        168.3955         estimate D2E/DX2                !
 ! D133  D(44,42,72,48)        -64.5006         estimate D2E/DX2                !
 ! D134  D(44,42,72,52)        176.7475         estimate D2E/DX2                !
 ! D135  D(44,42,72,56)         53.9646         estimate D2E/DX2                !
 ! D136  D(29,45,47,93)        159.9625         estimate D2E/DX2                !
 ! D137  D(46,45,47,93)        -79.3017         estimate D2E/DX2                !
 ! D138  D(73,45,47,93)         31.8862         estimate D2E/DX2                !
 ! D139  D(29,45,73,60)       -174.1596         estimate D2E/DX2                !
 ! D140  D(29,45,73,64)        -55.8919         estimate D2E/DX2                !
 ! D141  D(29,45,73,68)         67.2026         estimate D2E/DX2                !
 ! D142  D(46,45,73,60)         64.4222         estimate D2E/DX2                !
 ! D143  D(46,45,73,64)       -177.31           estimate D2E/DX2                !
 ! D144  D(46,45,73,68)        -54.2156         estimate D2E/DX2                !
 ! D145  D(47,45,73,60)        -49.1327         estimate D2E/DX2                !
 ! D146  D(47,45,73,64)         69.1351         estimate D2E/DX2                !
 ! D147  D(47,45,73,68)       -167.7705         estimate D2E/DX2                !
 ! D148  D(45,47,93,92)         83.5455         estimate D2E/DX2                !
 ! D149  D(45,47,93,100)      -145.4956         estimate D2E/DX2                !
 ! D150  D(49,48,50,86)         50.0321         estimate D2E/DX2                !
 ! D151  D(49,48,50,87)        -69.2209         estimate D2E/DX2                !
 ! D152  D(49,48,50,88)        175.5145         estimate D2E/DX2                !
 ! D153  D(51,48,50,86)        170.9694         estimate D2E/DX2                !
 ! D154  D(51,48,50,87)         51.7165         estimate D2E/DX2                !
 ! D155  D(51,48,50,88)        -63.5481         estimate D2E/DX2                !
 ! D156  D(72,48,50,86)        -69.8603         estimate D2E/DX2                !
 ! D157  D(72,48,50,87)        170.8867         estimate D2E/DX2                !
 ! D158  D(72,48,50,88)         55.6221         estimate D2E/DX2                !
 ! D159  D(49,48,51,95)        143.5394         estimate D2E/DX2                !
 ! D160  D(50,48,51,95)         22.1729         estimate D2E/DX2                !
 ! D161  D(72,48,51,95)       -102.2621         estimate D2E/DX2                !
 ! D162  D(49,48,72,42)        163.9933         estimate D2E/DX2                !
 ! D163  D(49,48,72,52)        -74.8932         estimate D2E/DX2                !
 ! D164  D(49,48,72,56)         43.5652         estimate D2E/DX2                !
 ! D165  D(50,48,72,42)        -72.9916         estimate D2E/DX2                !
 ! D166  D(50,48,72,52)         48.1219         estimate D2E/DX2                !
 ! D167  D(50,48,72,56)        166.5802         estimate D2E/DX2                !
 ! D168  D(51,48,72,42)         46.3949         estimate D2E/DX2                !
 ! D169  D(51,48,72,52)        167.5084         estimate D2E/DX2                !
 ! D170  D(51,48,72,56)        -74.0332         estimate D2E/DX2                !
 ! D171  D(48,51,95,92)        102.9971         estimate D2E/DX2                !
 ! D172  D(54,52,53,89)         50.2984         estimate D2E/DX2                !
 ! D173  D(54,52,53,90)        -68.2098         estimate D2E/DX2                !
 ! D174  D(54,52,53,91)        167.8212         estimate D2E/DX2                !
 ! D175  D(55,52,53,89)        -67.6453         estimate D2E/DX2                !
 ! D176  D(55,52,53,90)        173.8466         estimate D2E/DX2                !
 ! D177  D(55,52,53,91)         49.8775         estimate D2E/DX2                !
 ! D178  D(72,52,53,89)        172.3863         estimate D2E/DX2                !
 ! D179  D(72,52,53,90)         53.8781         estimate D2E/DX2                !
 ! D180  D(72,52,53,91)        -70.0909         estimate D2E/DX2                !
 ! D181  D(53,52,72,42)        -86.0599         estimate D2E/DX2                !
 ! D182  D(53,52,72,48)        156.083          estimate D2E/DX2                !
 ! D183  D(53,52,72,56)         38.0527         estimate D2E/DX2                !
 ! D184  D(54,52,72,42)         38.4548         estimate D2E/DX2                !
 ! D185  D(54,52,72,48)        -79.4022         estimate D2E/DX2                !
 ! D186  D(54,52,72,56)        162.5674         estimate D2E/DX2                !
 ! D187  D(55,52,72,42)        152.395          estimate D2E/DX2                !
 ! D188  D(55,52,72,48)         34.538          estimate D2E/DX2                !
 ! D189  D(55,52,72,56)        -83.4924         estimate D2E/DX2                !
 ! D190  D(58,56,57,83)        178.6219         estimate D2E/DX2                !
 ! D191  D(58,56,57,84)         59.4061         estimate D2E/DX2                !
 ! D192  D(58,56,57,85)        -58.5713         estimate D2E/DX2                !
 ! D193  D(59,56,57,83)         59.3563         estimate D2E/DX2                !
 ! D194  D(59,56,57,84)        -59.8594         estimate D2E/DX2                !
 ! D195  D(59,56,57,85)       -177.8369         estimate D2E/DX2                !
 ! D196  D(72,56,57,83)        -60.633          estimate D2E/DX2                !
 ! D197  D(72,56,57,84)       -179.8488         estimate D2E/DX2                !
 ! D198  D(72,56,57,85)         62.1738         estimate D2E/DX2                !
 ! D199  D(57,56,72,42)        -62.823          estimate D2E/DX2                !
 ! D200  D(57,56,72,48)         54.7103         estimate D2E/DX2                !
 ! D201  D(57,56,72,52)        172.7151         estimate D2E/DX2                !
 ! D202  D(58,56,72,42)         59.8666         estimate D2E/DX2                !
 ! D203  D(58,56,72,48)        177.3999         estimate D2E/DX2                !
 ! D204  D(58,56,72,52)        -64.5952         estimate D2E/DX2                !
 ! D205  D(59,56,72,42)        174.4228         estimate D2E/DX2                !
 ! D206  D(59,56,72,48)        -68.0439         estimate D2E/DX2                !
 ! D207  D(59,56,72,52)         49.961          estimate D2E/DX2                !
 ! D208  D(61,60,62,80)       -178.1555         estimate D2E/DX2                !
 ! D209  D(61,60,62,81)         56.5943         estimate D2E/DX2                !
 ! D210  D(61,60,62,82)        -62.2526         estimate D2E/DX2                !
 ! D211  D(63,60,62,80)        -56.8134         estimate D2E/DX2                !
 ! D212  D(63,60,62,81)        177.9363         estimate D2E/DX2                !
 ! D213  D(63,60,62,82)         59.0895         estimate D2E/DX2                !
 ! D214  D(73,60,62,80)         62.2895         estimate D2E/DX2                !
 ! D215  D(73,60,62,81)        -62.9608         estimate D2E/DX2                !
 ! D216  D(73,60,62,82)        178.1924         estimate D2E/DX2                !
 ! D217  D(61,60,73,45)        167.0018         estimate D2E/DX2                !
 ! D218  D(61,60,73,64)         46.1772         estimate D2E/DX2                !
 ! D219  D(61,60,73,68)        -72.652          estimate D2E/DX2                !
 ! D220  D(62,60,73,45)        -70.5238         estimate D2E/DX2                !
 ! D221  D(62,60,73,64)        168.6516         estimate D2E/DX2                !
 ! D222  D(62,60,73,68)         49.8224         estimate D2E/DX2                !
 ! D223  D(63,60,73,45)         50.8091         estimate D2E/DX2                !
 ! D224  D(63,60,73,64)        -70.0154         estimate D2E/DX2                !
 ! D225  D(63,60,73,68)        171.1554         estimate D2E/DX2                !
 ! D226  D(66,64,65,77)         47.0851         estimate D2E/DX2                !
 ! D227  D(66,64,65,78)        -73.3712         estimate D2E/DX2                !
 ! D228  D(66,64,65,79)        165.6973         estimate D2E/DX2                !
 ! D229  D(67,64,65,77)        -71.9769         estimate D2E/DX2                !
 ! D230  D(67,64,65,78)        167.5667         estimate D2E/DX2                !
 ! D231  D(67,64,65,79)         46.6353         estimate D2E/DX2                !
 ! D232  D(73,64,65,77)        167.9086         estimate D2E/DX2                !
 ! D233  D(73,64,65,78)         47.4522         estimate D2E/DX2                !
 ! D234  D(73,64,65,79)        -73.4792         estimate D2E/DX2                !
 ! D235  D(65,64,73,45)        -67.272          estimate D2E/DX2                !
 ! D236  D(65,64,73,60)         50.0413         estimate D2E/DX2                !
 ! D237  D(65,64,73,68)        168.4926         estimate D2E/DX2                !
 ! D238  D(66,64,73,45)         55.8009         estimate D2E/DX2                !
 ! D239  D(66,64,73,60)        173.1142         estimate D2E/DX2                !
 ! D240  D(66,64,73,68)        -68.4345         estimate D2E/DX2                !
 ! D241  D(67,64,73,45)        170.1293         estimate D2E/DX2                !
 ! D242  D(67,64,73,60)        -72.5574         estimate D2E/DX2                !
 ! D243  D(67,64,73,68)         45.8939         estimate D2E/DX2                !
 ! D244  D(70,68,69,74)        169.0424         estimate D2E/DX2                !
 ! D245  D(70,68,69,75)         51.198          estimate D2E/DX2                !
 ! D246  D(70,68,69,76)        -67.0198         estimate D2E/DX2                !
 ! D247  D(71,68,69,74)         50.2663         estimate D2E/DX2                !
 ! D248  D(71,68,69,75)        -67.5782         estimate D2E/DX2                !
 ! D249  D(71,68,69,76)        174.204          estimate D2E/DX2                !
 ! D250  D(73,68,69,74)        -69.503          estimate D2E/DX2                !
 ! D251  D(73,68,69,75)        172.6525         estimate D2E/DX2                !
 ! D252  D(73,68,69,76)         54.4347         estimate D2E/DX2                !
 ! D253  D(69,68,73,45)        -84.9705         estimate D2E/DX2                !
 ! D254  D(69,68,73,60)        157.7307         estimate D2E/DX2                !
 ! D255  D(69,68,73,64)         39.6663         estimate D2E/DX2                !
 ! D256  D(70,68,73,45)         38.827          estimate D2E/DX2                !
 ! D257  D(70,68,73,60)        -78.4719         estimate D2E/DX2                !
 ! D258  D(70,68,73,64)        163.4638         estimate D2E/DX2                !
 ! D259  D(71,68,73,45)        153.5533         estimate D2E/DX2                !
 ! D260  D(71,68,73,60)         36.2545         estimate D2E/DX2                !
 ! D261  D(71,68,73,64)        -81.8099         estimate D2E/DX2                !
 ! D262  D(94,92,93,47)         -9.4755         estimate D2E/DX2                !
 ! D263  D(94,92,93,100)      -140.975          estimate D2E/DX2                !
 ! D264  D(95,92,93,47)        168.3686         estimate D2E/DX2                !
 ! D265  D(95,92,93,100)        36.8691         estimate D2E/DX2                !
 ! D266  D(93,92,94,98)         48.1806         estimate D2E/DX2                !
 ! D267  D(93,92,94,104)      -174.1666         estimate D2E/DX2                !
 ! D268  D(95,92,94,98)       -129.7003         estimate D2E/DX2                !
 ! D269  D(95,92,94,104)         7.9525         estimate D2E/DX2                !
 ! D270  D(93,92,95,51)       -114.2342         estimate D2E/DX2                !
 ! D271  D(94,92,95,51)         63.5226         estimate D2E/DX2                !
 ! D272  D(47,93,99,101)       153.0239         estimate D2E/DX2                !
 ! D273  D(92,93,99,101)       -81.6941         estimate D2E/DX2                !
 ! D274  D(92,94,98,96)        151.9957         estimate D2E/DX2                !
 ! D275  D(104,94,98,96)         6.1166         estimate D2E/DX2                !
 ! D276  D(92,94,104,102)     -165.9089         estimate D2E/DX2                !
 ! D277  D(98,94,104,102)       -8.1949         estimate D2E/DX2                !
 ! D278  D(97,96,98,94)          0.9394         estimate D2E/DX2                !
 ! D279  D(106,96,98,94)       121.7242         estimate D2E/DX2                !
 ! D280  D(97,96,105,107)      -23.9912         estimate D2E/DX2                !
 ! D281  D(98,96,105,107)     -138.0157         estimate D2E/DX2                !
 ! D282  D(103,102,104,94)    -128.3167         estimate D2E/DX2                !
 --------------------------------------------------------------------------------
 Trust Radius=3.00D-01 FncErr=1.00D-07 GrdErr=1.00D-06 EigMax=2.50D+02 EigMin=1.00D-04
 Number of steps in this run=    599 maximum allowed number of steps=    642.
 GradGradGradGradGradGradGradGradGradGradGradGradGradGradGradGradGradGrad

 Leave Link  103 at Tue May  7 19:33:30 2024, MaxMem=  2415919104 cpu:               2.5 elap:               0.1
 (Enter /packages/apps/gaussian/g16/g16/l202.exe)
 Stoichiometry    C34H64N2O7
 Framework group  C1[X(C34H64N2O7)]
 Deg. of freedom   315
 Full point group                 C1      NOp   1
 Largest Abelian subgroup         C1      NOp   1
 Largest concise Abelian subgroup C1      NOp   1
                         Standard orientation:                         
 ---------------------------------------------------------------------
 Center     Atomic      Atomic             Coordinates (Angstroms)
 Number     Number       Type             X           Y           Z
 ---------------------------------------------------------------------
      1          6           0       -3.351858   -4.929390    1.410937
      2          6           0       -4.183780   -4.048551    0.486625
      3          1           0       -3.670766   -5.969935    1.349211
      4          1           0       -2.293133   -4.885402    1.154536
      5          1           0       -3.452881   -4.608868    2.449805
      6          6           0       -3.846084   -2.549916    0.579928
      7          1           0       -4.058491   -4.378104   -0.548920
      8          1           0       -5.243247   -4.175118    0.721858
      9          6           0       -4.785904   -1.737991   -0.329165
     10          1           0       -4.034382   -2.239171    1.612975
     11          1           0       -4.462607   -1.831813   -1.369750
     12          1           0       -5.777692   -2.195529   -0.284277
     13          6           0       -4.954664   -0.252155    0.027449
     14          6           0       -5.999316    0.400222   -0.890899
     15          1           0       -5.344195   -0.207074    1.050000
     16          1           0       -5.639283    0.362133   -1.922924
     17          1           0       -6.910537   -0.202589   -0.861763
     18          6           0       -6.327681    1.840094   -0.515069
     19          1           0       -7.095059    2.251081   -1.171093
     20          1           0       -6.696623    1.901016    0.510778
     21          1           0       -5.445609    2.477134   -0.587234
     22          6           0       -3.646743    0.508429    0.013363
     23          6           0       -3.166245    1.131344    1.158331
     24          6           0       -2.864270    0.556761   -1.136659
     25          6           0       -1.931301    1.762564    1.167669
     26          1           0       -3.752508    1.095713    2.068680
     27          6           0       -1.626045    1.170923   -1.130744
     28          1           0       -3.198432    0.058714   -2.037849
     29          6           0       -1.147969    1.795280    0.019118
     30          1           0       -1.558082    2.215638    2.078645
     31          1           0       -1.005089    1.128150   -2.016289
     32          6           0       -2.372890   -2.315911    0.302546
     33          6           0       -1.526834   -1.836696    1.294695
     34          6           0       -1.825736   -2.578396   -0.952242
     35          6           0       -0.174690   -1.640347    1.056373
     36          1           0       -1.935249   -1.585570    2.265076
     37          6           0       -0.480130   -2.376310   -1.199326
     38          1           0       -2.463036   -2.923050   -1.757304
     39          6           0        0.370337   -1.939994   -0.186216
     40          1           0        0.453194   -1.222714    1.835090
     41          1           0       -0.079639   -2.540152   -2.192088
     42          6           0        1.833782   -1.769692   -0.449857
     43          1           0        2.001695   -1.566102   -1.503010
     44          1           0        2.239672   -0.938800    0.119066
     45          6           0        0.228102    2.388501    0.046988
     46          1           0        0.596091    2.408835    1.063507
     47          1           0        0.935533    1.807084   -0.554222
     48          6           0        4.107490   -2.670466   -0.626182
     49          1           0        4.762923   -3.385612   -0.127766
     50          6           0        4.269949   -2.736576   -2.131582
     51          1           0        4.348146   -1.652614   -0.316968
     52          6           0        2.216911   -4.241549   -0.767161
     53          6           0        1.142978   -5.044416   -0.047154
     54          1           0        1.880509   -3.950301   -1.758640
     55          1           0        3.097837   -4.869160   -0.890801
     56          6           0        2.788598   -3.192611    1.382892
     57          6           0        3.427032   -2.074476    2.178857
     58          1           0        1.770654   -3.359675    1.724619
     59          1           0        3.343576   -4.122482    1.511899
     60          6           0        1.858322    4.141212   -0.450724
     61          1           0        1.951255    5.070669   -1.014342
     62          6           0        2.516498    4.272738    0.908099
     63          1           0        2.321591    3.324102   -1.003294
     64          6           0       -0.162565    4.012163   -1.835404
     65          6           0        0.611586    3.314362   -2.938595
     66          1           0       -1.191107    3.664240   -1.816065
     67          1           0       -0.178100    5.088909   -2.006149
     68          6           0       -0.325788    4.797920    0.494805
     69          6           0       -1.814545    5.020928    0.277956
     70          1           0       -0.137339    4.431362    1.502039
     71          1           0        0.195265    5.747531    0.374924
     72          7           0        2.708117   -2.974539   -0.105993
     73          7           0        0.368293    3.829309   -0.438204
     74          1           0       -2.026861    5.562605   -0.641843
     75          1           0       -2.168703    5.633012    1.107258
     76          1           0       -2.385209    4.097455    0.283562
     77          1           0        0.002240    3.352325   -3.841427
     78          1           0        0.841381    2.276989   -2.709668
     79          1           0        1.557795    3.806785   -3.150244
     80          1           0        2.464348    3.348444    1.474735
     81          1           0        2.125220    5.096373    1.502844
     82          1           0        3.573278    4.461085    0.721715
     83          1           0        4.457138   -1.873496    1.900679
     84          1           0        3.416907   -2.372854    3.227052
     85          1           0        2.877318   -1.141121    2.102842
     86          1           0        4.205972   -3.747396   -2.534511
     87          1           0        5.260315   -2.339925   -2.347884
     88          1           0        3.565478   -2.083646   -2.643540
[...]
 09,0.00579778,-0.00045884,0.00056706,0.00121303,-0.00609956,-0.0037892
 2,0.00610167,0.00162173,0.00213663,0.00300640,0.00043867,0.00321891,-0
 .00822876,0.00018153,-0.00000136,0.00033142,-0.00014024,-0.00012747,-0
 .00032009,-0.00003636,0.00002589,-0.00005067,-0.00185141,-0.00033982,0
 .00005170,-0.00020616,0.00025013,0.00029421,0.00075872,0.00005596,-0.0
 0055641,0.18564147,-0.25815932,-0.07743419,-0.18626044,0.26488922,-0.0
 0001181,0.00000756,0.00001889,0.00001499,-0.00001863,-0.00000844,0.000
 00504,0.00001042,-0.00000163,0.00000837,-0.00001080,-0.00000034,0.0000
 0141,-0.00000593,-0.00000939,-0.00002647,0.00000638,0.00005893,-0.0000
 0791,-0.00000332,-0.00000687,0.00001752,0.00001261,-0.00000167,0.00003
 375,0.00000881,-0.00001640,0.00000819,-0.00000522,-0.00001823,-0.00001
 077,-0.00000715,-0.00001333,0.00002333,0.00001452,0.00000404,-0.000040
 03,-0.00000524,0.00004062,-0.00000085,0.00002362,-0.00001568,0.0000214
 5,0.00000682,-0.00002192,-0.00000400,-0.00000665,-0.00001315,0.0000198
 9,-0.00000290,0.00000621,-0.00000170,-0.00000356,0.00001901,0.00001078
 ,-0.00000620,0.00000340,0.00000916,0.00000503,-0.00001538,-0.00000960,
 0.00001426,0.00000387,0.00001660,0.00004536,0.00006862,-0.00001032,-0.
 00006277,-0.00003326,0.00010684,0.00007538,-0.00004622,0.00020240,-0.0
 0008136,-0.00004910,0.00009873,0.00004317,-0.00001304,0.00023713,0.000
 01767,-0.00019539,0.00003285,0.00002518,0.00000332,-0.00039821,-0.0003
 5370,0.00032435,-0.00014454,0.00050473,0.00063336,-0.00002643,-0.00002
 905,-0.00004577,0.00000646,-0.00002000,-0.00002083,-0.00003272,0.00006
 067,0.00014129,0.00003576,0.00000799,-0.00001087,-0.00004458,0.0000247
 0,-0.00012448,0.00003117,0.00000692,-0.00000592,-0.00000226,-0.0000174
 2,-0.00002228,0.00000931,0.00000107,0.00000753,0.00002102,0.00005067,-
 0.00000949,-0.00009218,-0.00017347,0.00005817,-0.00000119,-0.00000684,
 0.00000382,-0.00004819,-0.00007973,-0.00000781,0.00000570,0.00000304,-
 0.00000560,0.00001511,-0.00011064,-0.00006069,-0.00073001,0.00020897,-
 0.00111257,-0.00050588,0.00057265,-0.00396943,0.00031416,-0.00015888,0
 .00014373,0.00002326,-0.00000245,-0.00000879,0.00000152,0.00001479,-0.
 00000858,0.00000479,-0.00000432,-0.00000403,0.00000481,-0.00007855,0.0
 0001031,-0.00003979,-0.00006475,-0.00002834,0.00000617,0.00001492,0.00
 001354,0.00000618,0.00000357,0.00000101,0.00000051,0.00001170,0.000002
 12,-0.00010841,0.00001514,-0.00006980,0.00003894,-0.00001162,0.0001413
 5,0.00001451,-0.00001109,0.00001097,0.00000779,0.00006299,0.00004447,0
 .00001675,-0.00011587,-0.00018912,0.00004166,-0.00006948,0.00011900,-0
 .00036398,0.00054856,-0.00011498,0.00002187,0.00006492,-0.00006645,-0.
 00003367,-0.00032498,-0.00022032,0.00000774,-0.00000409,-0.00000717,0.
 00000837,0.00004372,0.00002585,0.00001854,-0.00008054,0.00015267,-0.00
 022867,0.00036208,0.00002238,0.00009356,-0.00002288,-0.00003910,-0.000
 30580,-0.00008044,0.00130068,0.00002775,-0.00003578,-0.00010778,0.0000
 4449,0.00006839,0.00002346,0.00031449,0.00008713,0.00030770,-0.0000395
 1,0.00002332,-0.00005355,0.00010853,-0.00012398,0.00002506,-0.00002364
 ,0.00003862,0.00005246,0.00002025,-0.00001148,0.00001709,-0.00002307,-
 0.00000100,-0.00007247,-0.00000029,-0.00000161,-0.00001483,0.00062148,
 0.00028532,-0.00025430,0.00000027,-0.00026341,0.00004453,-0.00002026,-
 0.00023757,0.00012115,-0.00002458,0.00003040,0.00000338,0.00000694,0.0
 0002300,-0.00002554,0.00005245,-0.00022472,-0.00013568,0.00000292,0.00
 002876,0.00001028,0.00000414,-0.00001450,-0.00000377,-0.00000451,-0.00
 001591,-0.00000939,0.00000713,0.00000926,0.00000795,-0.00000369,-0.000
 01029,0.00000070,-0.00000706,-0.00000617,-0.00000510,0.00026439,-0.000
 39066,-0.00131282,0.00002743,0.00008548,0.00057150,-0.00072450,0.00023
 132,0.00134697,-0.00046362,0.00039172,0.00044832,-0.00520534,0.0036676
 3,-0.00986329,-0.00068356,0.00343849,0.00279833,0.00236274,-0.00290878
 ,-0.00200295,0.00007539,0.00014609,0.00019415,-0.00008086,-0.00019445,
 -0.00024465,-0.00000963,-0.00000904,-0.00002741,-0.00084896,-0.0000860
 8,-0.00030684,-0.00007409,0.00008047,0.00018458,0.00046247,-0.00006432
 ,0.00002883,0.01159883,-0.03985950,-0.06076536,-0.03275750,0.07054087,
 0.08367843,0.00000377,-0.00000348,-0.00001055,-0.00000219,0.00000419,0
 .00000450,-0.00000008,-0.00000106,0.00000152,-0.00000303,0.00000173,0.
 00000108,-0.00000057,0.00000093,0.00000554,0.00000770,-0.00000283,-0.0
 0002742,0.00000127,0.00000177,0.00000454,-0.00000524,-0.00000375,-0.00
 000126,-0.00001992,0.00000144,0.00000599,-0.00000254,0.00000340,0.0000
 1028,0.00000352,0.00000363,0.00000768,-0.00000716,-0.00001039,-0.00000
 209,0.00002998,0.00000279,-0.00005869,-0.00000491,-0.00001953,0.000008
 53,-0.00001093,-0.00000381,0.00001634,0.00000022,0.00000558,0.00000938
 ,-0.00001146,0.00000249,-0.00000473,0.00000571,0.00000426,-0.00001592,
 -0.00000441,0.00000228,0.00000099,-0.00000929,-0.00000478,0.00001109,0
 .00000600,-0.00000708,-0.00000385,-0.00010753,-0.00006171,0.00001385,0
 .00008705,-0.00007265,-0.00037079,-0.00004554,-0.00000900,0.00001305,-
 0.00045143,-0.00001591,0.00021560,-0.00007427,-0.00003479,0.00001882,0
 .00006576,0.00001597,0.00000734,-0.00000284,-0.00000316,-0.00000269,-0
 .00011395,-0.00005431,0.00001416,0.00067895,0.00020394,-0.00008906,0.0
 0000189,-0.00000807,-0.00001544,-0.00000302,0.00000737,0.00001213,0.00
 001809,-0.00001278,-0.00004127,-0.00000209,-0.00000269,0.00000953,-0.0
 0000656,-0.00000372,0.00001170,-0.00001230,-0.00000443,-0.00000327,-0.
 00000682,0.00000240,0.00000891,-0.00000150,0.00000181,0.00000003,0.000
 00405,-0.00000842,0.00000287,0.00001584,0.00000825,-0.00001310,0.00000
 124,0.00000295,0.00000226,0.00002145,-0.00000021,0.00000197,-0.0000007
 1,0.00000645,-0.00000096,0.00000775,0.00002513,0.00000109,0.00005500,0
 .00010727,0.00011128,-0.00019847,-0.00010719,-0.00016884,0.00003228,0.
 00000774,0.00001102,0.00001115,0.00000308,-0.00000467,-0.00000215,-0.0
 0000087,0.00000304,-0.00000475,0.00000042,0.00000210,0.00000395,0.0000
 2391,-0.00000113,0.00000977,0.00001650,0.00000490,-0.00000080,-0.00000
 434,-0.00000260,0.00000075,-0.00000203,-0.00000162,-0.00000157,-0.0000
 0066,-0.00000065,0.00000954,0.00001117,0.00001189,-0.00000382,-0.00000
 758,-0.00000541,-0.00000458,-0.00000400,-0.00000404,0.00000132,-0.0000
 0514,-0.00000347,0.00021858,0.00002859,0.00002943,-0.00002995,0.000010
 03,-0.00003299,-0.00021592,0.00008522,-0.00009580,-0.00004243,0.000016
 98,-0.00002097,-0.00000212,-0.00002706,0.00004707,-0.00000679,0.000007
 06,-0.00001520,-0.00001278,-0.00001036,-0.00001748,0.00001261,0.000002
 85,0.00000178,0.00017040,0.00001842,0.00001575,0.00003002,-0.00008169,
 -0.00001749,-0.00006838,-0.00013379,0.00003362,0.00000884,-0.00001137,
 -0.00003711,-0.00002368,-0.00001734,-0.00000630,-0.00009885,0.00000776
 ,-0.00001595,-0.00002625,0.00001563,0.00001916,-0.00002639,0.00006632,
 -0.00000745,0.00000234,-0.00002307,-0.00000752,-0.00000672,-0.00000249
 ,-0.00000763,0.00000791,0.00000065,0.00000678,-0.00000409,-0.00000388,
 0.00001240,0.00013299,0.00013684,0.00014523,0.00004846,-0.00016351,0.0
 0008358,-0.00000844,-0.00004856,0.00002143,-0.00000553,0.00001673,0.00
 000841,0.00000556,0.00000531,0.00000240,0.00001499,0.00000849,-0.00000
 110,-0.00000018,-0.00000751,-0.00000294,-0.00000243,0.00000424,0.00000
 304,0.00000213,0.00000482,0.00000063,-0.00000153,-0.00000209,-0.000001
 60,0.00000011,0.00000120,0.00000093,0.00000127,0.00000154,0.00000082,-
 0.00001865,0.00006201,0.00024929,-0.00007043,-0.00004292,-0.00011439,-
 0.00006139,-0.00010648,-0.00023833,0.00003631,-0.00006962,-0.00007356,
 -0.00168787,0.00103560,-0.00081884,-0.00017282,0.00078359,0.00042231,-
 0.00000492,-0.00018505,0.00003724,-0.00002289,-0.00004236,-0.00003975,
 0.00002305,0.00005116,0.00005659,0.00000324,0.00000367,0.00000684,0.00
 001219,-0.00022100,-0.00023164,-0.00008736,0.00006534,0.00006934,0.000
 09944,0.00003654,0.00015129,-0.05380340,-0.02873249,-0.14148321,0.0077
 3149,0.00831856,0.02659839,0.04799270,-0.00000017,-0.00000285,-0.00000
 656,0.00000156,-0.00000449,0.00000246,0.00000287,0.00000548,0.00000238
 ,0.00000319,-0.00000419,-0.00000253,-0.00000526,-0.00000139,0.00000528
 ,-0.00000438,-0.00000335,-0.00000823,-0.00000179,0.00000113,0.00000500
 ,0.00000662,0.00000259,-0.00000278,0.00000218,0.00000370,-0.00000184,-
 0.00000387,0.00000162,0.00000552,-0.00000274,-0.00000112,0.00000285,0.
 00000799,0.00000265,-0.00000046,-0.00000353,-0.00000267,-0.00000224,-0
 .00000680,0.00000757,-0.00000439,-0.00000346,0.00000112,0.00000136,-0.
 00000076,-0.00000237,0.00000062,0.00000554,-0.00000172,0.00000031,0.00
 000613,-0.00000273,0.00000322,0.00000725,-0.00000315,0.00000534,-0.000
 00157,0.00000295,-0.00000340,-0.00000667,0.00000496,-0.00000113,-0.000
 00965,-0.00003027,0.00001025,0.00002482,-0.00000487,-0.00001548,0.0000
 0632,0.00001069,0.00001420,-0.00007508,0.00010531,-0.00001277,-0.00003
 643,0.00001832,-0.00001009,0.00002522,-0.00001748,0.00001084,-0.000002
 83,0.00001058,0.00000155,-0.00001091,-0.00007562,0.00003054,-0.0000482
 3,-0.00022023,-0.00015140,0.00000039,0.00001002,0.00000067,-0.00002844
 ,-0.00000245,0.00000852,0.00003887,-0.00000015,-0.00002160,0.00000702,
 0.00000573,0.00000910,-0.00003459,-0.00001717,-0.00001221,-0.00003058,
 -0.00000947,-0.00000522,-0.00000319,0.00000320,0.00000994,0.00000201,0
 .00000185,0.00000746,0.00002323,0.00000480,0.00000045,0.00001750,-0.00
 001211,-0.00003076,0.00000090,0.00000282,0.00000498,0.00000631,-0.0000
 1062,0.00000549,0.00000173,0.00000997,-0.00000712,0.00000269,0.0000042
 8,-0.00001648,-0.00006358,0.00026987,0.00006837,0.00001874,-0.00025917
 ,-0.00009378,0.00004962,-0.00002985,0.00004199,0.00002549,0.00000188,-
 0.00001032,-0.00000053,-0.00000251,-0.00000091,-0.00000406,-0.00000299
 ,0.00000242,0.00000145,0.00000831,-0.00000467,-0.00000288,-0.00001656,
 -0.00000414,0.00000161,0.00000293,0.00000028,0.00000494,0.00000091,0.0
 0000127,-0.00000273,0.00000287,-0.00000183,-0.00000770,-0.00001431,-0.
 00003372,-0.00000420,0.00000564,0.00000149,-0.00000241,-0.00000953,-0.
 00000411,-0.00000143,0.00000924,0.00000666,0.00021165,-0.00007991,-0.0
 0002044,-0.00001349,-0.00000313,0.00001551,-0.00020190,0.00027511,0.00
 003322,-0.00005046,0.00004384,-0.00003873,-0.00003056,-0.00000967,0.00
 000082,0.00000780,0.00000460,0.00000258,-0.00000627,0.00001627,-0.0000
 0863,-0.00000073,-0.00001996,0.00000806,-0.00000194,-0.00034459,0.0003
 3184,-0.00007204,0.00001204,0.00008375,-0.00001116,0.00093948,-0.00035
 948,0.00000073,-0.00010736,0.00021691,-0.00001330,0.00001002,0.0000237
 2,0.00000041,-0.00008304,-0.00012325,0.00004818,-0.00001818,-0.0000011
 1,0.00007155,-0.00002651,-0.00000074,-0.00001493,0.00000560,-0.0000302
 7,-0.00000130,0.00000217,0.00000191,-0.00000113,0.00000312,-0.00000891
 ,-0.00000622,-0.00000365,0.00000452,0.00008431,0.00004872,-0.00000664,
 0.00002534,-0.00018152,0.00009545,-0.00000905,-0.00005145,-0.00000135,
 -0.00000711,0.00000975,0.00000728,0.00001738,-0.00002310,0.00000807,0.
 00001711,-0.00000466,-0.00002952,0.00000206,0.00000377,0.00000238,-0.0
 0000254,-0.00000015,0.00000121,0.00000097,0.00000257,-0.00000196,0.000
 00151,0.00000262,0.00000434,-0.00000338,-0.00000288,-0.00000098,-0.000
 00003,-0.00000534,-0.00000110,-0.00003501,-0.00003498,-0.00022257,0.00
 002123,-0.00006325,0.00010290,-0.00013524,-0.00007840,0.00035074,-0.00
 005067,0.00002317,0.00008102,0.00131459,-0.00093344,0.00167452,0.00050
 437,-0.00045973,-0.00058853,0.00014704,0.00020780,-0.00042326,0.000005
 34,-0.00001071,0.00003592,-0.00000347,-0.00000101,-0.00002170,-0.00000
 353,0.00000328,-0.00000706,-0.00007561,-0.00002793,0.00008143,0.000003
 34,0.00002659,0.00000276,0.00000330,0.00001729,-0.00004180,-0.00843687
 ,-0.07267880,-0.13271732,-0.01233106,-0.00822849,-0.03557714,0.0191390
 4,0.08206644,-0.00000272,0.00000329,0.00000604,0.00000256,-0.00000635,
 -0.00000118,0.00000137,0.00000377,-0.00000029,0.00000225,-0.00000331,-
 0.00000038,0.00000007,-0.00000260,-0.00000309,-0.00000697,0.00000144,0
 .00001594,-0.00000192,-0.00000017,-0.00000260,0.00000516,0.00000358,-0
 .00000027,0.00000614,0.00000073,-0.00000388,0.00000168,-0.00000164,-0.
 00000412,-0.00000248,-0.00000173,-0.00000346,0.00000637,0.00000364,0.0
 0000115,-0.00001032,0.00000318,0.00001144,-0.00000053,0.00000310,-0.00
 000394,0.00000339,-0.00000027,-0.00000554,-0.00000199,-0.00000190,-0.0
 0000339,0.00000546,0.00000246,0.00000154,-0.00000585,-0.00000311,0.000
 00599,0.00000232,-0.00000078,0.00000144,0.00000091,0.00000134,-0.00000
 397,0.00000087,0.00000331,-0.00000197,-0.00001199,-0.00000202,0.000002
 75,-0.00002651,-0.00002565,0.,0.00000847,-0.00000578,-0.00000615,0.000
 15250,0.00008831,0.00035573,0.00000709,-0.00000184,-0.00000415,-0.0000
 2480,0.00000943,-0.00000182,-0.00000211,-0.00000053,0.00000121,0.00001
 568,0.00002471,-0.00008433,-0.00027119,-0.00008263,-0.00045229,0.00000
 069,-0.00000312,-0.00000015,-0.00000630,-0.00000232,-0.00000602,0.0000
 0223,0.00001357,0.00002248,0.00000629,0.00000261,-0.00000050,-0.000014
 88,0.00000186,-0.00002433,-0.00000064,-0.00000846,0.00000136,0.0000014
 5,-0.00000183,-0.00000213,0.00000203,-0.00000045,0.00000306,0.00000601
 ,0.00001261,-0.00000098,-0.00000967,-0.00003636,0.00000234,-0.00000003
 ,-0.00000261,0.00000119,-0.00000718,-0.00001490,-0.00000121,-0.0000005
 8,-0.00000263,-0.00000002,-0.00000438,-0.00002859,-0.00000947,0.000259
 12,-0.00021554,0.00027633,-0.00019144,0.00012957,-0.00028318,-0.000109
 95,0.00004868,-0.00008172,0.00000103,-0.00000026,0.00000024,0.00000013
 ,0.00000458,-0.00000256,0.00000138,-0.00000116,-0.00000208,-0.00000051
 ,-0.00002652,0.00000433,-0.00000934,-0.00001570,-0.00000747,0.00000223
 ,0.00000294,0.00000364,0.00000107,0.00000070,-0.00000031,-0.00000019,0
 .00000206,0.00000084,-0.00001358,-0.00000093,-0.00000873,0.00000437,-0
 .00000329,0.00002330,0.00000429,-0.00000260,0.00000295,-0.00000079,0.0
 0001175,0.00000783,-0.00029349,-0.00000726,-0.00003968,0.00004992,-0.0
 0001026,0.00003962,0.00007846,-0.00010439,0.00006196,0.00004739,-0.000
 02836,0.00002449,0.00001824,0.00004365,-0.00002515,0.00000494,-0.00000
 590,0.00001104,0.00001210,-0.00000684,0.00001695,-0.00000551,0.0000123
 0,-0.00001282,0.00007609,0.00012725,0.00001429,0.00000754,0.00000847,-
 0.00000988,-0.00016156,-0.00033191,-0.00032863,-0.00002418,0.00006548,
 -0.00011003,0.00001108,0.00001722,0.00000169,0.00005386,0.00004155,-0.
 00000274,-0.00000118,0.00000131,0.00001865,-0.00003410,0.00001464,-0.0
 0000416,0.00001956,-0.00000012,0.00001136,0.00000852,0.00000016,0.0000
 0776,-0.00001122,0.00000074,-0.00000277,0.00000333,0.00000607,-0.00001
 273,0.00001270,-0.00016408,-0.00017232,0.00001731,0.00023085,-0.000096
 92,-0.00003131,0.00002378,0.00008088,-0.00000108,-0.00000348,-0.000000
 45,0.00000168,0.00000452,-0.00000564,0.00000777,-0.00004116,-0.0000165
 8,0.00000073,0.00000813,0.00000248,0.00000192,-0.00000480,-0.00000175,
 -0.00000121,-0.00000532,-0.00000213,0.00000177,0.00000223,0.00000202,-
 0.00000036,-0.00000334,0.00000025,-0.00000226,-0.00000081,-0.00000189,
 0.00003659,-0.00010684,-0.00034802,0.00008977,0.00005481,0.00011723,-0
 .00007958,0.00011389,0.00037768,-0.00009355,0.00010117,0.00011032,-0.0
 0024951,0.00095269,0.00083684,0.00017086,-0.00039045,0.00002598,0.0000
 5937,0.00006080,-0.00033331,0.00001886,0.00004530,0.00004436,-0.000021
 83,-0.00005335,-0.00005976,-0.00000157,-0.00000550,-0.00000690,-0.0001
 4391,0.00011212,-0.00000717,0.00003896,-0.00002635,0.00001721,0.000054
 95,-0.00004588,-0.00002741,-0.10778983,-0.16844915,-0.46702217,-0.0072
 8482,0.00060978,-0.01141080,0.11555200,0.16726102,0.47850328\\0.000000
 61,-0.00000013,-0.00000046,0.00000077,-0.00000012,-0.00000020,0.000000
 25,-0.00000035,-0.00000044,-0.00000071,-0.00000033,0.00000004,0.000000
 66,-0.00000043,-0.00000023,0.00000165,-0.00000232,-0.00000190,0.000000
 42,-0.00000013,-0.00000036,0.00000009,-0.00000020,-0.00000023,-0.00000
 426,-0.00000219,0.00000333,0.00000072,-0.00000062,-0.00000087,-0.00000
 007,0.00000068,0.00000156,-0.00000064,-0.00000062,-0.00000022,0.000000
 09,0.00000286,-0.00000283,0.00000060,0.00000001,0.00000073,0.00000023,
 -0.00000091,-0.00000027,-0.00000017,-0.00000014,0.00000028,0.,-0.00000
 063,0.00000031,0.,-0.00000059,0.00000061,-0.00000033,-0.00000031,0.000
 00044,-0.00000012,-0.00000058,0.00000036,-0.00000003,-0.00000032,0.000
 00046,0.00000283,-0.00000041,0.00000102,-0.00000079,-0.00000026,0.0000
 0050,-0.00000016,-0.00000121,0.00000017,0.00000014,-0.00000232,-0.0000
 0083,-0.00000023,-0.00000016,0.00000021,-0.00000109,0.,0.00000021,-0.0
 0000026,0.00000041,-0.00000072,-0.00000029,0.00000022,0.00000180,-0.00
 000102,-0.00000009,-0.00000018,-0.00000016,0.00000035,0.00000053,0.000
 00187,-0.00000041,0.00000079,0.00000064,-0.00000028,-0.00000024,0.0000
 0074,0.00000035,-0.00000016,-0.00000041,-0.00000063,-0.00000067,-0.000
 00002,-0.00000049,-0.00000027,-0.00000103,0.00000272,0.00000072,0.0000
 0024,-0.00000010,0.00000007,0.00000115,0.00000084,-0.00000179,-0.00000
 097,-0.00000062,-0.00000039,0.00000026,0.00000065,0.00000076,0.0000006
 8,-0.00000040,-0.00000121,-0.00000245,0.00000123,0.00000053,-0.0000003
 9,-0.00000173,0.00000070,-0.00000366,0.00000378,-0.00000039,-0.0000004
 2,0.00000128,-0.00000105,0.00000449,-0.00000248,-0.00000178,0.00000038
 ,0.00000035,0.00000442,0.00000057,0.00000085,-0.00000066,0.00000008,0.
 00000181,-0.00000034,-0.00000051,-0.00000295,-0.00000472,-0.00000020,0
 .00000128,0.00000030,0.00000123,-0.00000059,0.00000105,-0.00000029,0.0
 0000076,-0.00000057,0.00000086,0.00000024,-0.00000037,-0.00000149,0.00
 000018,-0.00000050,0.00000101,-0.00000101,-0.00000193,0.00000062,0.000
 00006,-0.00000080,0.00000052,-0.00000043,-0.00000087,-0.00000078,0.000
 00048,0.00000145,0.00000060,0.00000062,0.00000078,0.00000174,-0.000001
 51,-0.00000120,-0.00000116,0.00000088,-0.00000105,-0.00000003,-0.00000
 090,0.00000016,-0.00000002,-0.00000098,0.00000177,-0.00000006,0.,0.000
 00034,-0.00000020,0.00000016,0.00000014,-0.00000312,0.00000104,0.,-0.0
 0000026,0.00000045,0.00000047,-0.00000132,0.00000005,0.00000188,-0.000
 00199,0.00000011,0.00000002,-0.00000016,-0.00000070,0.00000058,-0.0000
 0140,0.00000108,-0.00000025,-0.00000080,0.00000005,0.00000085,-0.00000
 015,-0.00000038,0.00000064,-0.00000048,0.00000109,0.00000023,-0.000000
 50,0.00000098,0.00000023,-0.00000089,0.00000106,0.00000080,0.00000010,
 0.00000046,0.00000100,-0.00000102,0.00000064,0.00000041,0.00000175,-0.
 00000112,0.00000005,-0.00000064,0.00000063,0.00000005,0.00000070,0.000
 00104,-0.00000046,0.00000037,-0.00000018,-0.00000010,0.00000116,-0.000
 00024,-0.00000022,0.00000036,0.00000101,-0.00000060,0.00000042,0.00000
 062,-0.00000024,-0.00000047,0.00000115,-0.00000013,0.00000070,-0.00000
 003,-0.00000073,0.00000206,-0.00000079,-0.00000032,0.00000092,-0.00000
 017,-0.00000057,0.00000134,0.00000422,0.00000221,-0.00000295,-0.000002
 03,-0.00000801,-0.00000027,-0.00000191,0.00000764,0.00000249,-0.000001
 48,-0.00000208,0.00000475,0.00000414,0.00000138,-0.00000452,-0.0000023
 7,-0.00000349,-0.00000031,-0.00000086,0.00000339,0.00000058,-0.0000008
 2,-0.00000350,0.00000140,0.00000099,0.00000276,-0.00000058,0.00000137,
 -0.00000013,0.00000464,-0.00000024,0.00000421,-0.00000092,-0.00000054,
 0.00000073,-0.00000303,0.00000243,-0.00000608,-0.00000236,-0.00000034,
 0.00000289,0.00000283,-0.00000206,-0.00000110,-0.00000073,-0.00000055,
 -0.00000025\\\@


 THE TEST OF A FIRST RATE INTELLIGENCE IS THE ABILITY TO HOLD TWO OPPOSED
 IDEAS IN THE MIND AT THE SAME TIME, AND STILL RETAIN THE ABILITY TO FUNCTION.
 ONE SHOULD, FOR EXAMPLE, BE ABLE TO SEE THAT THINGS ARE HOPELESS AND YET BE
 DETERMINED TO MAKE THEM OTHERWISE.

                                                       -- F. SCOTT FITZGERALD
 Job cpu time:      75 days 15 hours 31 minutes 35.9 seconds.
 Elapsed time:       1 days 22 hours 22 minutes 31.0 seconds.
 File lengths (MBytes):  RWF=  70706 Int=      0 D2E=      0 Chk=    239 Scr=      1
 Normal termination of Gaussian 16 at Thu May  9 20:20:14 2024.
