 Entering Gaussian System, Link 0=g16
 Input=6water.gjf
 Output=6water.log
 Initial command:
 /packages/apps/gaussian/g16/g16/l1.exe "/scratch/mdturne9/3-5-ethyl/ofreq/Gau-1491663.inp" -scrdir="/scratch/mdturne9/3-5-ethyl/ofreq/"
 Entering Link 1 = /packages/apps/gaussian/g16/g16/l1.exe PID=   1491665.
  
 Copyright (c) 1988,1990,1992,1993,1995,1998,2003,2009,2016,
            Gaussian, Inc.  All Rights Reserved.
  
 This is part of the Gaussian(R) 16 program.  It is based on
 the Gaussian(R) 09 system (copyright 2009, Gaussian, Inc.),
 the Gaussian(R) 03 system (copyright 2003, Gaussian, Inc.),
 the Gaussian(R) 98 system (copyright 1998, Gaussian, Inc.),
 the Gaussian(R) 94 system (copyright 1995, Gaussian, Inc.),
 the Gaussian 92(TM) system (copyright 1992, Gaussian, Inc.),
 the Gaussian 90(TM) system (copyright 1990, Gaussian, Inc.),
 the Gaussian 88(TM) system (copyright 1988, Gaussian, Inc.),
 the Gaussian 86(TM) system (copyright 1986, Carnegie Mellon
 University), and the Gaussian 82(TM) system (copyright 1983,
 Carnegie Mellon University). Gaussian is a federally registered
 trademark of Gaussian, Inc.
  
 This software contains proprietary and confidential information,
 including trade secrets, belonging to Gaussian, Inc.
  
 This software is provided under written license and may be
 used, copied, transmitted, or stored only in accord with that
 written license.
  
 The following legend is applicable only to US Government
 contracts under FAR:
  
                    RESTRICTED RIGHTS LEGEND
  
 Use, reproduction and disclosure by the US Government is
 subject to restrictions as set forth in subparagraphs (a)
 and (c) of the Commercial Computer Software - Restricted
 Rights clause in FAR 52.227-19.
  
 Gaussian, Inc.
 340 Quinnipiac St., Bldg. 40, Wallingford CT 06492
  
  
 ---------------------------------------------------------------
 Warning -- This program may not be used in any manner that
 competes with the business of Gaussian, Inc. or will provide
 assistance to any competitor of Gaussian, Inc.  The licensee
 of this program is prohibited from giving any competitor of
 Gaussian, Inc. access to this program.  By using this program,
 the user acknowledges that Gaussian, Inc. is engaged in the
 business of creating and licensing software in the field of
 computational chemistry and represents and warrants to the
 licensee that it is not a competitor of Gaussian, Inc. and that
 it will not use this program in any manner prohibited above.
 ---------------------------------------------------------------
  

 Cite this work as:
 Gaussian 16, Revision A.03,
 M. J. Frisch, G. W. Trucks, H. B. Schlegel, G. E. Scuseria, 
 M. A. Robb, J. R. Cheeseman, G. Scalmani, V. Barone, 
 G. A. Petersson, H. Nakatsuji, X. Li, M. Caricato, A. V. Marenich, 
 J. Bloino, B. G. Janesko, R. Gomperts, B. Mennucci, H. P. Hratchian, 
 J. V. Ortiz, A. F. Izmaylov, J. L. Sonnenberg, D. Williams-Young, 
 F. Ding, F. Lipparini, F. Egidi, J. Goings, B. Peng, A. Petrone, 
 T. Henderson, D. Ranasinghe, V. G. Zakrzewski, J. Gao, N. Rega, 
 G. Zheng, W. Liang, M. Hada, M. Ehara, K. Toyota, R. Fukuda, 
 J. Hasegawa, M. Ishida, T. Nakajima, Y. Honda, O. Kitao, H. Nakai, 
 T. Vreven, K. Throssell, J. A. Montgomery, Jr., J. E. Peralta, 
 F. Ogliaro, M. J. Bearpark, J. J. Heyd, E. N. Brothers, K. N. Kudin, 
 V. N. Staroverov, T. A. Keith, R. Kobayashi, J. Normand, 
 K. Raghavachari, A. P. Rendell, J. C. Burant, S. S. Iyengar, 
 J. Tomasi, M. Cossi, J. M. Millam, M. Klene, C. Adamo, R. Cammi, 
 J. W. Ochterski, R. L. Martin, K. Morokuma, O. Farkas, 
 J. B. Foresman, and D. J. Fox, Gaussian, Inc., Wallingford CT, 2016.
 
 ******************************************
 Gaussian 16:  ES64L-G16RevA.03 25-Dec-2016
                24-Apr-2024 
 ******************************************
 %nprocshared=40
 Will use up to   40 processors via shared memory.
 %mem=15GB
 %chk=6water.chk
 ---------------------------------------------------
 #p opt freq wb97xd/6-311+g(2d,2p) geom=connectivity
 ---------------------------------------------------
 1/18=20,19=15,26=3,38=1,57=2/1,3;
 2/9=110,12=2,17=6,18=5,40=1/2;
 3/5=4,6=6,7=212,11=2,25=1,30=1,71=1,74=-58/1,2,3;
 4//1;
 5/5=2,38=5/2;
 6/7=2,8=2,9=2,10=2,28=1/1;
 7//1,2,3,16;
 1/18=20,19=15,26=3/3(2);
 2/9=110/2;
 99//99;
 2/9=110/2;
 3/5=4,6=6,7=212,11=2,25=1,30=1,71=1,74=-58/1,2,3;
 4/5=5,16=3,69=1/1;
 5/5=2,38=5/2;
 7//1,2,3,16;
 1/18=20,19=15,26=3/3(-5);
 2/9=110/2;
 6/7=2,8=2,9=2,10=2,19=2,28=1/1;
 99/9=1/99;
 Leave Link    1 at Wed Apr 24 12:52:24 2024, MaxMem=  2013265920 cpu:               5.5 elap:               0.4
 (Enter /packages/apps/gaussian/g16/g16/l101.exe)
 --------
 Required
 --------
 Symbolic Z-matrix:
 Charge =  0 Multiplicity = 1
 C                    0     2.65547  -5.28983  -1.63688  L 
 C                    0     3.55606  -4.66089  -0.58064  L 
 H                    0     2.75723  -6.37516  -1.63963  L 
 H                    0     1.60717  -5.04961  -1.45844  L 
 H                    0     2.91193  -4.92631  -2.63413  L 
 C                    0     3.53031  -3.12181  -0.57275  L 
 H                    0     3.27326  -5.02685   0.41057  L 
 H                    0     4.58711  -4.9839   -0.74399  L 
 C                    0     4.51844  -2.57964   0.47514  L 
 H                    0     3.87489  -2.78841  -1.55748  L 
 H                    0     4.06541  -2.62899   1.46918  L 
 H                    0     5.38329  -3.24743   0.50771  L 
 C                    0     5.04898  -1.16019   0.21849  L 
 C                    0     6.09301  -0.77777   1.2779   L 
 H                    0     5.55788  -1.17622  -0.75116  L 
 H                    0     5.61524  -0.76312   2.26145  L 
 H                    0     6.84962  -1.56543   1.31718  L 
 C                    0     6.76588   0.56394   1.01414  L 
 H                    0     7.5222    0.77858   1.76915  L 
 H                    0     7.25604   0.56936   0.03844  L 
 H                    0     6.03956   1.37737   1.02374  L 
 C                    0     3.94158  -0.13396   0.1253   L 
 C                    0     3.72212   0.5788   -1.0471   L 
 C                    0     3.07624   0.07656   1.19529  L 
 C                    0     2.65932   1.46249  -1.15983  L 
 H                    0     4.37127   0.41363  -1.8985   L 
 C                    0     2.01223   0.95206   1.0885   L 
 H                    0     3.20092  -0.49037   2.10896  L 
 C                    0     1.80135   1.67028  -0.08629  L 
 H                    0     2.47118   1.97281  -2.09699  L 
 H                    0     1.30419   1.04589   1.90158  L 
 C                    0     2.11074  -2.61507  -0.39873  L 
 C                    0     1.47029  -1.92044  -1.4165   L 
 C                    0     1.39689  -2.85777   0.77342  L 
 C                    0     0.1554   -1.50062  -1.28269  L 
 H                    0     2.01305  -1.68335  -2.32244  L 
 C                    0     0.08359  -2.44492   0.91438  L 
 H                    0     1.8722   -3.37735   1.5966   L 
 C                    0    -0.56454  -1.78947  -0.12998  L 
 H                    0    -0.30507  -0.92382  -2.07503  L 
 H                    0    -0.45287  -2.64835   1.83383  L 
 C                    0    -2.00175  -1.3802   -0.00316  L 
 H                    0    -2.25613  -1.1877    1.03325  L 
 H                    0    -2.19313  -0.46909  -0.5621   L 
 C                    0     0.59238   2.545    -0.21604  L 
 H                    0     0.29375   2.60716  -1.25318  L 
 H                    0    -0.22809   2.12233   0.36818  L 
 C                    0    -4.40359  -1.78652  -0.24068  L 
 H                    0    -5.09212  -2.33452  -0.88433  L 
 C                    0    -4.87409  -1.83001   1.19831  L 
 H                    0    -4.35654  -0.75633  -0.58682  L 
 C                    0    -2.93773  -3.71387   0.23257  L 
 C                    0    -1.94571  -4.74122  -0.29279  L 
 H                    0    -2.73267  -3.47217   1.27391  L 
 H                    0    -3.93722  -4.14232   0.17992  L 
 C                    0    -2.8928   -2.64817  -1.98296  L 
 C                    0    -3.13867  -1.46289  -2.89273  L 
 H                    0    -1.88821  -3.03184  -2.13705  L 
 H                    0    -3.59692  -3.45066  -2.20329  L 
 C                    0    -0.64495   4.62857   0.13006  L 
 H                    0    -0.57681   5.56581   0.68342  L 
 C                    0    -1.16684   4.87309  -1.27106  L 
 H                    0    -1.32566   3.94863   0.63504  L 
 C                    0     1.19685   4.10639   1.66088  L 
 C                    0     0.19865   3.65044   2.70957  L 
 H                    0     2.11108   3.52384   1.72648  L 
 H                    0     1.45546   5.15497   1.80988  L 
 C                    0     1.68314   4.76024  -0.6696   L 
 C                    0     3.16572   4.67577  -0.34167  L 
 H                    0     1.48943   4.39845  -1.67758  L 
 H                    0     1.36958   5.80242  -0.61878  L 
 N                    0    -3.02953  -2.39238  -0.506    L 
 N                    0     0.7348    3.99849   0.23007  L 
 H                    0     3.41764   5.19995   0.57798  L 
 H                    0     3.70154   5.16619  -1.15421  L 
 H                    0     3.52682   3.65435  -0.2762   L 
 H                    0     0.735     3.54628   3.65243  L 
 H                    0    -0.27157   2.69644   2.46585  L 
 H                    0    -0.59438   4.3803    2.86055  L 
 H                    0    -1.22889   3.95828  -1.85196  L 
 H                    0    -0.59217   5.6143   -1.82381  L 
 H                    0    -2.18462   5.24512  -1.16143  L 
 H                    0    -4.13133  -1.03401  -2.7884   L 
 H                    0    -3.02027  -1.81505  -3.91787  L 
 H                    0    -2.42082  -0.66353  -2.72964  L 
 H                    0    -5.11778  -2.83471   1.53763  L 
 H                    0    -5.76908  -1.21122   1.24504  L 
 H                    0    -4.15262  -1.3852    1.87609  L 
 H                    0    -1.91191  -5.54644   0.44092  L 
 H                    0    -0.93795  -4.35137  -0.3952   L 
 H                    0    -2.25727  -5.17559  -1.24112  L 
 C                    0    -2.60504   1.47958   1.01045  L 
 O                    0    -1.48328   1.2153    1.5812   L 
 O                    0    -2.59627   2.13074  -0.11248  L 
 O                    0    -3.70493   1.08862   1.52095  L 
 O                    0    -1.6151    1.5306   -2.45357  L 
 H                    0    -2.48434   1.56369  -2.86502  L 
 H                    0    -1.83429   1.73156  -1.50008  L 
 O                    0    -2.3602   -0.24487   3.57625  L 
 H                    0    -1.82401   0.26243   2.90993  L 
 H                    0    -3.22476   0.09328   3.30604  L 
 O                    0    -4.50843   1.36246  -1.83671  L 
 H                    0    -5.34606   1.32652  -1.35826  L 
 H                    0    -3.89905   1.71004  -1.14474  L 
 O                    0     0.57179   2.78931  -3.57345  L 
 H                    0    -0.23096   2.31641  -3.27572  L 
 H                    0     0.36623   3.12211  -4.44552  L 
 O                    0    -6.12145   1.12899   0.47888  L 
 H                    0    -6.59127   1.88248   0.83147  L 
 H                    0    -5.2035    1.18516   0.86642  L 
 O                    0    -2.16497  -2.89219   3.31764  L 
 H                    0    -2.21803  -3.26813   4.19439  L 
 H                    0    -2.23966  -1.91383   3.44485  L 
 
 Add virtual bond connecting atoms H98        and O94        Dist= 3.09D+00.
 Add virtual bond connecting atoms H110       and O95        Dist= 3.10D+00.
 Add virtual bond connecting atoms H100       and O93        Dist= 3.16D+00.
 Add virtual bond connecting atoms H113       and O99        Dist= 3.17D+00.
 Add virtual bond connecting atoms H104       and O94        Dist= 3.24D+00.
 Add virtual bond connecting atoms H106       and O96        Dist= 3.39D+00.
 Add virtual bond connecting atoms O93        and H47        Dist= 3.72D+00.
 Add virtual bond connecting atoms O93        and H78        Dist= 3.98D+00.
 Add virtual bond connecting atoms H106       and H46        Dist= 3.99D+00.
 ITRead=  0  0  0  0  0  0  0  0  0  0  0  0  0  0  0  0  0  0  0  0
 ITRead=  0  0  0  0  0  0  0  0  0  0  0  0  0  0  0  0  0  0  0  0
 ITRead=  0  0  0  0  0  0  0  0  0  0  0  0  0  0  0  0  0  0  0  0
 ITRead=  0  0  0  0  0  0  0  0  0  0  0  0  0  0  0  0  0  0  0  0
 ITRead=  0  0  0  0  0  0  0  0  0  0  0  0  0  0  0  0  0  0  0  0
 ITRead=  0  0  0  0  0  0  0  0  0  0  0  0  0
 MicOpt= -1 -1 -1 -1 -1 -1 -1 -1 -1 -1 -1 -1 -1 -1 -1 -1 -1 -1 -1 -1
 MicOpt= -1 -1 -1 -1 -1 -1 -1 -1 -1 -1 -1 -1 -1 -1 -1 -1 -1 -1 -1 -1
 MicOpt= -1 -1 -1 -1 -1 -1 -1 -1 -1 -1 -1 -1 -1 -1 -1 -1 -1 -1 -1 -1
 MicOpt= -1 -1 -1 -1 -1 -1 -1 -1 -1 -1 -1 -1 -1 -1 -1 -1 -1 -1 -1 -1
 MicOpt= -1 -1 -1 -1 -1 -1 -1 -1 -1 -1 -1 -1 -1 -1 -1 -1 -1 -1 -1 -1
 MicOpt= -1 -1 -1 -1 -1 -1 -1 -1 -1 -1 -1 -1 -1
 NAtoms=    113 NQM=      113 NQMF=       0 NMMI=      0 NMMIF=      0
                NMic=       0 NMicF=      0.
                    Isotopes and Nuclear Properties:
 (Nuclear quadrupole moments (NQMom) in fm**2, nuclear magnetic moments (NMagM)
  in nuclear magnetons)

  Atom         1           2           3           4           5           6           7           8           9          10
 IAtWgt=          12          12           1           1           1          12           1           1          12           1
 AtmWgt=  12.0000000  12.0000000   1.0078250   1.0078250   1.0078250  12.0000000   1.0078250   1.0078250  12.0000000   1.0078250
 NucSpn=           0           0           1           1           1           0           1           1           0           1
 AtZEff=  -0.0000000  -0.0000000  -0.0000000  -0.0000000  -0.0000000  -0.0000000  -0.0000000  -0.0000000  -0.0000000  -0.0000000
 NQMom=    0.0000000   0.0000000   0.0000000   0.0000000   0.0000000   0.0000000   0.0000000   0.0000000   0.0000000   0.0000000
 NMagM=    0.0000000   0.0000000   2.7928460   2.7928460   2.7928460   0.0000000   2.7928460   2.7928460   0.0000000   2.7928460
 AtZNuc=   6.0000000   6.0000000   1.0000000   1.0000000   1.0000000   6.0000000   1.0000000   1.0000000   6.0000000   1.0000000

  Atom        11          12          13          14          15          16          17          18          19          20
 IAtWgt=           1           1          12          12           1           1           1          12           1           1
 AtmWgt=   1.0078250   1.0078250  12.0000000  12.0000000   1.0078250   1.0078250   1.0078250  12.0000000   1.0078250   1.0078250
 NucSpn=           1           1           0           0           1           1           1           0           1           1
 AtZEff=  -0.0000000  -0.0000000  -0.0000000  -0.0000000  -0.0000000  -0.0000000  -0.0000000  -0.0000000  -0.0000000  -0.0000000
 NQMom=    0.0000000   0.0000000   0.0000000   0.0000000   0.0000000   0.0000000   0.0000000   0.0000000   0.0000000   0.0000000
 NMagM=    2.7928460   2.7928460   0.0000000   0.0000000   2.7928460   2.7928460   2.7928460   0.0000000   2.7928460   2.7928460
 AtZNuc=   1.0000000   1.0000000   6.0000000   6.0000000   1.0000000   1.0000000   1.0000000   6.0000000   1.0000000   1.0000000

  Atom        21          22          23          24          25          26          27          28          29          30
 IAtWgt=           1          12          12          12          12           1          12           1          12           1
 AtmWgt=   1.0078250  12.0000000  12.0000000  12.0000000  12.0000000   1.0078250  12.0000000   1.0078250  12.0000000   1.0078250
 NucSpn=           1           0           0           0           0           1           0           1           0           1
 AtZEff=  -0.0000000  -0.0000000  -0.0000000  -0.0000000  -0.0000000  -0.0000000  -0.0000000  -0.0000000  -0.0000000  -0.0000000
 NQMom=    0.0000000   0.0000000   0.0000000   0.0000000   0.0000000   0.0000000   0.0000000   0.0000000   0.0000000   0.0000000
 NMagM=    2.7928460   0.0000000   0.0000000   0.0000000   0.0000000   2.7928460   0.0000000   2.7928460   0.0000000   2.7928460
 AtZNuc=   1.0000000   6.0000000   6.0000000   6.0000000   6.0000000   1.0000000   6.0000000   1.0000000   6.0000000   1.0000000

  Atom        31          32          33          34          35          36          37          38          39          40
 IAtWgt=           1          12          12          12          12           1          12           1          12           1
 AtmWgt=   1.0078250  12.0000000  12.0000000  12.0000000  12.0000000   1.0078250  12.0000000   1.0078250  12.0000000   1.0078250
 NucSpn=           1           0           0           0           0           1           0           1           0           1
 AtZEff=  -0.0000000  -0.0000000  -0.0000000  -0.0000000  -0.0000000  -0.0000000  -0.0000000  -0.0000000  -0.0000000  -0.0000000
 NQMom=    0.0000000   0.0000000   0.0000000   0.0000000   0.0000000   0.0000000   0.0000000   0.0000000   0.0000000   0.0000000
 NMagM=    2.7928460   0.0000000   0.0000000   0.0000000   0.0000000   2.7928460   0.0000000   2.7928460   0.0000000   2.7928460
 AtZNuc=   1.0000000   6.0000000   6.0000000   6.0000000   6.0000000   1.0000000   6.0000000   1.0000000   6.0000000   1.0000000

  Atom        41          42          43          44          45          46          47          48          49          50
 IAtWgt=           1          12           1           1          12           1           1          12           1          12
 AtmWgt=   1.0078250  12.0000000   1.0078250   1.0078250  12.0000000   1.0078250   1.0078250  12.0000000   1.0078250  12.0000000
 NucSpn=           1           0           1           1           0           1           1           0           1           0
 AtZEff=  -0.0000000  -0.0000000  -0.0000000  -0.0000000  -0.0000000  -0.0000000  -0.0000000  -0.0000000  -0.0000000  -0.0000000
 NQMom=    0.0000000   0.0000000   0.0000000   0.0000000   0.0000000   0.0000000   0.0000000   0.0000000   0.0000000   0.0000000
 NMagM=    2.7928460   0.0000000   2.7928460   2.7928460   0.0000000   2.7928460   2.7928460   0.0000000   2.7928460   0.0000000
 AtZNuc=   1.0000000   6.0000000   1.0000000   1.0000000   6.0000000   1.0000000   1.0000000   6.0000000   1.0000000   6.0000000

  Atom        51          52          53          54          55          56          57          58          59          60
 IAtWgt=           1          12          12           1           1          12          12           1           1          12
 AtmWgt=   1.0078250  12.0000000  12.0000000   1.0078250   1.0078250  12.0000000  12.0000000   1.0078250   1.0078250  12.0000000
 NucSpn=           1           0           0           1           1           0           0           1           1           0
 AtZEff=  -0.0000000  -0.0000000  -0.0000000  -0.0000000  -0.0000000  -0.0000000  -0.0000000  -0.0000000  -0.0000000  -0.0000000
 NQMom=    0.0000000   0.0000000   0.0000000   0.0000000   0.0000000   0.0000000   0.0000000   0.0000000   0.0000000   0.0000000
 NMagM=    2.7928460   0.0000000   0.0000000   2.7928460   2.7928460   0.0000000   0.0000000   2.7928460   2.7928460   0.0000000
 AtZNuc=   1.0000000   6.0000000   6.0000000   1.0000000   1.0000000   6.0000000   6.0000000   1.0000000   1.0000000   6.0000000

  Atom        61          62          63          64          65          66          67          68          69          70
 IAtWgt=           1          12           1          12          12           1           1          12          12           1
 AtmWgt=   1.0078250  12.0000000   1.0078250  12.0000000  12.0000000   1.0078250   1.0078250  12.0000000  12.0000000   1.0078250
 NucSpn=           1           0           1           0           0           1           1           0           0           1
 AtZEff=  -0.0000000  -0.0000000  -0.0000000  -0.0000000  -0.0000000  -0.0000000  -0.0000000  -0.0000000  -0.0000000  -0.0000000
 NQMom=    0.0000000   0.0000000   0.0000000   0.0000000   0.0000000   0.0000000   0.0000000   0.0000000   0.0000000   0.0000000
 NMagM=    2.7928460   0.0000000   2.7928460   0.0000000   0.0000000   2.7928460   2.7928460   0.0000000   0.0000000   2.7928460
 AtZNuc=   1.0000000   6.0000000   1.0000000   6.0000000   6.0000000   1.0000000   1.0000000   6.0000000   6.0000000   1.0000000

  Atom        71          72          73          74          75          76          77          78          79          80
 IAtWgt=           1          14          14           1           1           1           1           1           1           1
 AtmWgt=   1.0078250  14.0030740  14.0030740   1.0078250   1.0078250   1.0078250   1.0078250   1.0078250   1.0078250   1.0078250
 NucSpn=           1           2           2           1           1           1           1           1           1           1
 AtZEff=  -0.0000000  -0.0000000  -0.0000000  -0.0000000  -0.0000000  -0.0000000  -0.0000000  -0.0000000  -0.0000000  -0.0000000
 NQMom=    0.0000000   2.0440000   2.0440000   0.0000000   0.0000000   0.0000000   0.0000000   0.0000000   0.0000000   0.0000000
 NMagM=    2.7928460   0.4037610   0.4037610   2.7928460   2.7928460   2.7928460   2.7928460   2.7928460   2.7928460   2.7928460
 AtZNuc=   1.0000000   7.0000000   7.0000000   1.0000000   1.0000000   1.0000000   1.0000000   1.0000000   1.0000000   1.0000000

  Atom        81          82          83          84          85          86          87          88          89          90
 IAtWgt=           1           1           1           1           1           1           1           1           1           1
 AtmWgt=   1.0078250   1.0078250   1.0078250   1.0078250   1.0078250   1.0078250   1.0078250   1.0078250   1.0078250   1.0078250
 NucSpn=           1           1           1           1           1           1           1           1           1           1
 AtZEff=  -0.0000000  -0.0000000  -0.0000000  -0.0000000  -0.0000000  -0.0000000  -0.0000000  -0.0000000  -0.0000000  -0.0000000
 NQMom=    0.0000000   0.0000000   0.0000000   0.0000000   0.0000000   0.0000000   0.0000000   0.0000000   0.0000000   0.0000000
 NMagM=    2.7928460   2.7928460   2.7928460   2.7928460   2.7928460   2.7928460   2.7928460   2.7928460   2.7928460   2.7928460
 AtZNuc=   1.0000000   1.0000000   1.0000000   1.0000000   1.0000000   1.0000000   1.0000000   1.0000000   1.0000000   1.0000000

  Atom        91          92          93          94          95          96          97          98          99         100
 IAtWgt=           1          12          16          16          16          16           1           1          16           1
 AtmWgt=   1.0078250  12.0000000  15.9949146  15.9949146  15.9949146  15.9949146   1.0078250   1.0078250  15.9949146   1.0078250
 NucSpn=           1           0           0           0           0           0           1           1           0           1
 AtZEff=  -0.0000000  -0.0000000  -0.0000000  -0.0000000  -0.0000000  -0.0000000  -0.0000000  -0.0000000  -0.0000000  -0.0000000
 NQMom=    0.0000000   0.0000000   0.0000000   0.0000000   0.0000000   0.0000000   0.0000000   0.0000000   0.0000000   0.0000000
 NMagM=    2.7928460   0.0000000   0.0000000   0.0000000   0.0000000   0.0000000   2.7928460   2.7928460   0.0000000   2.7928460
 AtZNuc=   1.0000000   6.0000000   8.0000000   8.0000000   8.0000000   8.0000000   1.0000000   1.0000000   8.0000000   1.0000000

  Atom       101         102         103         104         105         106         107         108         109         110
 IAtWgt=           1          16           1           1          16           1           1          16           1           1
 AtmWgt=   1.0078250  15.9949146   1.0078250   1.0078250  15.9949146   1.0078250   1.0078250  15.9949146   1.0078250   1.0078250
 NucSpn=           1           0           1           1           0           1           1           0           1           1
 AtZEff=  -0.0000000  -0.0000000  -0.0000000  -0.0000000  -0.0000000  -0.0000000  -0.0000000  -0.0000000  -0.0000000  -0.0000000
 NQMom=    0.0000000   0.0000000   0.0000000   0.0000000   0.0000000   0.0000000   0.0000000   0.0000000   0.0000000   0.0000000
 NMagM=    2.7928460   0.0000000   2.7928460   2.7928460   0.0000000   2.7928460   2.7928460   0.0000000   2.7928460   2.7928460
 AtZNuc=   1.0000000   8.0000000   1.0000000   1.0000000   8.0000000   1.0000000   1.0000000   8.0000000   1.0000000   1.0000000

  Atom       111         112         113
 IAtWgt=          16           1           1
 AtmWgt=  15.9949146   1.0078250   1.0078250
 NucSpn=           0           1           1
 AtZEff=  -0.0000000  -0.0000000  -0.0000000
 NQMom=    0.0000000   0.0000000   0.0000000
 NMagM=    0.0000000   2.7928460   2.7928460
 AtZNuc=   8.0000000   1.0000000   1.0000000
 Leave Link  101 at Wed Apr 24 12:52:25 2024, MaxMem=  2013265920 cpu:              12.3 elap:               0.6
 (Enter /packages/apps/gaussian/g16/g16/l103.exe)

 GradGradGradGradGradGradGradGradGradGradGradGradGradGradGradGradGradGrad
 Berny optimization.
 Initialization pass.
                           ----------------------------
                           !    Initial Parameters    !
                           ! (Angstroms and Degrees)  !
 --------------------------                            --------------------------
 ! Name  Definition              Value          Derivative Info.                !
 --------------------------------------------------------------------------------
 ! R1    R(1,2)                  1.5239         estimate D2E/DX2                !
 ! R2    R(1,3)                  1.0901         estimate D2E/DX2                !
 ! R3    R(1,4)                  1.0902         estimate D2E/DX2                !
 ! R4    R(1,5)                  1.092          estimate D2E/DX2                !
 ! R5    R(2,6)                  1.5393         estimate D2E/DX2                !
 ! R6    R(2,7)                  1.0938         estimate D2E/DX2                !
 ! R7    R(2,8)                  1.0927         estimate D2E/DX2                !
 ! R8    R(6,9)                  1.539          estimate D2E/DX2                !
 ! R9    R(6,10)                 1.0953         estimate D2E/DX2                !
 ! R10   R(6,32)                 1.5173         estimate D2E/DX2                !
 ! R11   R(9,11)                 1.0935         estimate D2E/DX2                !
 ! R12   R(9,12)                 1.0931         estimate D2E/DX2                !
 ! R13   R(9,13)                 1.5369         estimate D2E/DX2                !
 ! R14   R(13,14)                1.5358         estimate D2E/DX2                !
 ! R15   R(13,15)                1.0952         estimate D2E/DX2                !
 ! R16   R(13,22)                1.5127         estimate D2E/DX2                !
 ! R17   R(14,16)                1.0935         estimate D2E/DX2                !
 ! R18   R(14,17)                1.0929         estimate D2E/DX2                !
 ! R19   R(14,18)                1.524          estimate D2E/DX2                !
 ! R20   R(18,19)                1.09           estimate D2E/DX2                !
 ! R21   R(18,20)                1.0919         estimate D2E/DX2                !
 ! R22   R(18,21)                1.0906         estimate D2E/DX2                !
 ! R23   R(22,23)                1.3895         estimate D2E/DX2                !
 ! R24   R(22,24)                1.3921         estimate D2E/DX2                !
 ! R25   R(23,25)                1.3868         estimate D2E/DX2                !
 ! R26   R(23,26)                1.0833         estimate D2E/DX2                !
 ! R27   R(24,27)                1.382          estimate D2E/DX2                !
 ! R28   R(24,28)                1.0825         estimate D2E/DX2                !
 ! R29   R(25,29)                1.3899         estimate D2E/DX2                !
 ! R30   R(25,30)                1.0836         estimate D2E/DX2                !
 ! R31   R(27,29)                1.393          estimate D2E/DX2                !
 ! R32   R(27,31)                1.0822         estimate D2E/DX2                !
 ! R33   R(29,45)                1.4979         estimate D2E/DX2                !
 ! R34   R(32,33)                1.3887         estimate D2E/DX2                !
 ! R35   R(32,34)                1.3937         estimate D2E/DX2                !
 ! R36   R(33,35)                1.3868         estimate D2E/DX2                !
 ! R37   R(33,36)                1.0824         estimate D2E/DX2                !
 ! R38   R(34,37)                1.3839         estimate D2E/DX2                !
 ! R39   R(34,38)                1.0833         estimate D2E/DX2                !
 ! R40   R(35,39)                1.3894         estimate D2E/DX2                !
 ! R41   R(35,40)                1.0828         estimate D2E/DX2                !
 ! R42   R(37,39)                1.393          estimate D2E/DX2                !
 ! R43   R(37,41)                1.0838         estimate D2E/DX2                !
 ! R44   R(39,42)                1.4997         estimate D2E/DX2                !
 ! R45   R(42,43)                1.0844         estimate D2E/DX2                !
 ! R46   R(42,44)                1.0859         estimate D2E/DX2                !
 ! R47   R(42,72)                1.5276         estimate D2E/DX2                !
 ! R48   R(45,46)                1.0811         estimate D2E/DX2                !
 ! R49   R(45,47)                1.0923         estimate D2E/DX2                !
 ! R50   R(45,73)                1.5271         estimate D2E/DX2                !
 ! R51   R(46,106)               2.1096         estimate D2E/DX2                !
 ! R52   R(47,93)                1.9671         estimate D2E/DX2                !
 ! R53   R(48,49)                1.0903         estimate D2E/DX2                !
 ! R54   R(48,50)                1.5146         estimate D2E/DX2                !
 ! R55   R(48,51)                1.0878         estimate D2E/DX2                !
 ! R56   R(48,72)                1.525          estimate D2E/DX2                !
 ! R57   R(50,86)                1.0881         estimate D2E/DX2                !
 ! R58   R(50,87)                1.0891         estimate D2E/DX2                !
 ! R59   R(50,88)                1.0852         estimate D2E/DX2                !
 ! R60   R(52,53)                1.5217         estimate D2E/DX2                !
 ! R61   R(52,54)                1.0885         estimate D2E/DX2                !
 ! R62   R(52,55)                1.0887         estimate D2E/DX2                !
 ! R63   R(52,72)                1.5167         estimate D2E/DX2                !
 ! R64   R(53,89)                1.0899         estimate D2E/DX2                !
 ! R65   R(53,90)                1.0854         estimate D2E/DX2                !
 ! R66   R(53,91)                1.0886         estimate D2E/DX2                !
 ! R67   R(56,57)                1.5143         estimate D2E/DX2                !
 ! R68   R(56,58)                1.0863         estimate D2E/DX2                !
 ! R69   R(56,59)                1.0901         estimate D2E/DX2                !
 ! R70   R(56,72)                1.5052         estimate D2E/DX2                !
 ! R71   R(57,83)                1.0864         estimate D2E/DX2                !
 ! R72   R(57,84)                1.0904         estimate D2E/DX2                !
 ! R73   R(57,85)                1.0867         estimate D2E/DX2                !
 ! R74   R(60,61)                1.0905         estimate D2E/DX2                !
 ! R75   R(60,62)                1.515          estimate D2E/DX2                !
 ! R76   R(60,63)                1.0866         estimate D2E/DX2                !
 ! R77   R(60,73)                1.5201         estimate D2E/DX2                !
 ! R78   R(62,80)                1.0854         estimate D2E/DX2                !
 ! R79   R(62,81)                1.0887         estimate D2E/DX2                !
 ! R80   R(62,82)                1.0892         estimate D2E/DX2                !
 ! R81   R(64,65)                1.5179         estimate D2E/DX2                !
 ! R82   R(64,66)                1.086          estimate D2E/DX2                !
 ! R83   R(64,67)                1.0902         estimate D2E/DX2                !
 ! R84   R(64,73)                1.5074         estimate D2E/DX2                !
 ! R85   R(65,77)                1.0897         estimate D2E/DX2                !
 ! R86   R(65,78)                1.0912         estimate D2E/DX2                !
 ! R87   R(65,79)                1.0883         estimate D2E/DX2                !
 ! R88   R(68,69)                1.5208         estimate D2E/DX2                !
 ! R89   R(68,70)                1.0883         estimate D2E/DX2                !
 ! R90   R(68,71)                1.0895         estimate D2E/DX2                !
 ! R91   R(68,73)                1.513          estimate D2E/DX2                !
 ! R92   R(69,74)                1.0881         estimate D2E/DX2                !
 ! R93   R(69,75)                1.0899         estimate D2E/DX2                !
 ! R94   R(69,76)                1.0854         estimate D2E/DX2                !
 ! R95   R(78,93)                2.1082         estimate D2E/DX2                !
 ! R96   R(92,93)                1.2861         estimate D2E/DX2                !
 ! R97   R(92,94)                1.2981         estimate D2E/DX2                !
 ! R98   R(92,95)                1.2741         estimate D2E/DX2                !
 ! R99   R(93,100)               1.6702         estimate D2E/DX2                !
 ! R100  R(94,98)                1.6326         estimate D2E/DX2                !
 ! R101  R(94,104)               1.7146         estimate D2E/DX2                !
 ! R102  R(95,110)               1.6381         estimate D2E/DX2                !
 ! R103  R(96,97)                0.9623         estimate D2E/DX2                !
 ! R104  R(96,98)                0.9988         estimate D2E/DX2                !
 ! R105  R(96,106)               1.7914         estimate D2E/DX2                !
 ! R106  R(99,100)               0.9944         estimate D2E/DX2                !
 ! R107  R(99,101)               0.9669         estimate D2E/DX2                !
 ! R108  R(99,113)               1.6785         estimate D2E/DX2                !
 ! R109  R(102,103)              0.9653         estimate D2E/DX2                !
 ! R110  R(102,104)              0.9854         estimate D2E/DX2                !
 ! R111  R(105,106)              0.9781         estimate D2E/DX2                !
 ! R112  R(105,107)              0.9558         estimate D2E/DX2                !
 ! R113  R(108,109)              0.9554         estimate D2E/DX2                !
 ! R114  R(108,110)              0.998          estimate D2E/DX2                !
 ! R115  R(111,112)              0.9554         estimate D2E/DX2                !
 ! R116  R(111,113)              0.9894         estimate D2E/DX2                !
 ! A1    A(2,1,3)              110.9463         estimate D2E/DX2                !
 ! A2    A(2,1,4)              111.3387         estimate D2E/DX2                !
 ! A3    A(2,1,5)              110.903          estimate D2E/DX2                !
 ! A4    A(3,1,4)              108.0331         estimate D2E/DX2                !
 ! A5    A(3,1,5)              107.8923         estimate D2E/DX2                !
 ! A6    A(4,1,5)              107.5759         estimate D2E/DX2                !
 ! A7    A(1,2,6)              113.9738         estimate D2E/DX2                !
 ! A8    A(1,2,7)              109.7075         estimate D2E/DX2                !
 ! A9    A(1,2,8)              109.3902         estimate D2E/DX2                !
 ! A10   A(6,2,7)              108.9999         estimate D2E/DX2                !
 ! A11   A(6,2,8)              108.1861         estimate D2E/DX2                !
 ! A12   A(7,2,8)              106.2911         estimate D2E/DX2                !
 ! A13   A(2,6,9)              110.1807         estimate D2E/DX2                !
 ! A14   A(2,6,10)             107.1269         estimate D2E/DX2                !
 ! A15   A(2,6,32)             110.497          estimate D2E/DX2                !
 ! A16   A(9,6,10)             107.6351         estimate D2E/DX2                !
 ! A17   A(9,6,32)             113.8888         estimate D2E/DX2                !
 ! A18   A(10,6,32)            107.2054         estimate D2E/DX2                !
 ! A19   A(6,9,11)             109.6976         estimate D2E/DX2                !
 ! A20   A(6,9,12)             108.2429         estimate D2E/DX2                !
 ! A21   A(6,9,13)             115.677          estimate D2E/DX2                !
 ! A22   A(11,9,12)            105.8498         estimate D2E/DX2                !
 ! A23   A(11,9,13)            109.6632         estimate D2E/DX2                !
 ! A24   A(12,9,13)            107.2217         estimate D2E/DX2                !
 ! A25   A(9,13,14)            110.4538         estimate D2E/DX2                !
 ! A26   A(9,13,15)            107.141          estimate D2E/DX2                !
 ! A27   A(9,13,22)            112.5901         estimate D2E/DX2                !
 ! A28   A(14,13,15)           107.3686         estimate D2E/DX2                !
 ! A29   A(14,13,22)           111.7921         estimate D2E/DX2                !
 ! A30   A(15,13,22)           107.1906         estimate D2E/DX2                !
 ! A31   A(13,14,16)           109.0725         estimate D2E/DX2                !
 ! A32   A(13,14,17)           108.418          estimate D2E/DX2                !
 ! A33   A(13,14,18)           113.5776         estimate D2E/DX2                !
 ! A34   A(16,14,17)           106.248          estimate D2E/DX2                !
 ! A35   A(16,14,18)           109.6805         estimate D2E/DX2                !
 ! A36   A(17,14,18)           109.5769         estimate D2E/DX2                !
 ! A37   A(14,18,19)           111.0905         estimate D2E/DX2                !
 ! A38   A(14,18,20)           110.9301         estimate D2E/DX2                !
 ! A39   A(14,18,21)           111.1677         estimate D2E/DX2                !
 ! A40   A(19,18,20)           107.8477         estimate D2E/DX2                !
 ! A41   A(19,18,21)           108.0072         estimate D2E/DX2                !
 ! A42   A(20,18,21)           107.646          estimate D2E/DX2                !
 ! A43   A(13,22,23)           121.0384         estimate D2E/DX2                !
 ! A44   A(13,22,24)           120.684          estimate D2E/DX2                !
 ! A45   A(23,22,24)           118.214          estimate D2E/DX2                !
 ! A46   A(22,23,25)           121.098          estimate D2E/DX2                !
 ! A47   A(22,23,26)           119.3588         estimate D2E/DX2                !
 ! A48   A(25,23,26)           119.5053         estimate D2E/DX2                !
 ! A49   A(22,24,27)           120.9957         estimate D2E/DX2                !
 ! A50   A(22,24,28)           119.8646         estimate D2E/DX2                !
 ! A51   A(27,24,28)           119.056          estimate D2E/DX2                !
 ! A52   A(23,25,29)           120.3686         estimate D2E/DX2                !
 ! A53   A(23,25,30)           120.231          estimate D2E/DX2                !
 ! A54   A(29,25,30)           119.37           estimate D2E/DX2                !
 ! A55   A(24,27,29)           120.5529         estimate D2E/DX2                !
 ! A56   A(24,27,31)           120.038          estimate D2E/DX2                !
 ! A57   A(29,27,31)           119.3311         estimate D2E/DX2                !
 ! A58   A(25,29,27)           118.7421         estimate D2E/DX2                !
 ! A59   A(25,29,45)           121.2409         estimate D2E/DX2                !
 ! A60   A(27,29,45)           119.7584         estimate D2E/DX2                !
 ! A61   A(6,32,33)            120.9618         estimate D2E/DX2                !
 ! A62   A(6,32,34)            121.1645         estimate D2E/DX2                !
 ! A63   A(33,32,34)           117.8572         estimate D2E/DX2                !
 ! A64   A(32,33,35)           121.1972         estimate D2E/DX2                !
 ! A65   A(32,33,36)           119.4541         estimate D2E/DX2                !
 ! A66   A(35,33,36)           119.3355         estimate D2E/DX2                !
 ! A67   A(32,34,37)           121.3182         estimate D2E/DX2                !
 ! A68   A(32,34,38)           119.8599         estimate D2E/DX2                !
 ! A69   A(37,34,38)           118.8217         estimate D2E/DX2                !
 ! A70   A(33,35,39)           120.5591         estimate D2E/DX2                !
 ! A71   A(33,35,40)           119.5944         estimate D2E/DX2                !
 ! A72   A(39,35,40)           119.8322         estimate D2E/DX2                !
 ! A73   A(34,37,39)           120.3698         estimate D2E/DX2                !
 ! A74   A(34,37,41)           120.0112         estimate D2E/DX2                !
 ! A75   A(39,37,41)           119.608          estimate D2E/DX2                !
 ! A76   A(35,39,37)           118.6024         estimate D2E/DX2                !
 ! A77   A(35,39,42)           120.6626         estimate D2E/DX2                !
 ! A78   A(37,39,42)           120.7245         estimate D2E/DX2                !
 ! A79   A(39,42,43)           110.7366         estimate D2E/DX2                !
 ! A80   A(39,42,44)           110.7536         estimate D2E/DX2                !
 ! A81   A(39,42,72)           115.8551         estimate D2E/DX2                !
 ! A82   A(43,42,44)           107.5578         estimate D2E/DX2                !
 ! A83   A(43,42,72)           105.9251         estimate D2E/DX2                !
 ! A84   A(44,42,72)           105.5406         estimate D2E/DX2                !
 ! A85   A(29,45,46)           109.8552         estimate D2E/DX2                !
 ! A86   A(29,45,47)           109.5095         estimate D2E/DX2                !
 ! A87   A(29,45,73)           117.082          estimate D2E/DX2                !
 ! A88   A(46,45,47)           109.1398         estimate D2E/DX2                !
 ! A89   A(46,45,73)           104.5541         estimate D2E/DX2                !
 ! A90   A(47,45,73)           106.3863         estimate D2E/DX2                !
 ! A91   A(49,48,50)           110.5051         estimate D2E/DX2                !
 ! A92   A(49,48,51)           108.3893         estimate D2E/DX2                !
 ! A93   A(49,48,72)           105.464          estimate D2E/DX2                !
 ! A94   A(50,48,51)           110.0565         estimate D2E/DX2                !
 ! A95   A(50,48,72)           115.7088         estimate D2E/DX2                !
 ! A96   A(51,48,72)           106.3746         estimate D2E/DX2                !
 ! A97   A(48,50,86)           113.1017         estimate D2E/DX2                !
 ! A98   A(48,50,87)           106.2446         estimate D2E/DX2                !
 ! A99   A(48,50,88)           112.0299         estimate D2E/DX2                !
 ! A100  A(86,50,87)           109.0987         estimate D2E/DX2                !
 ! A101  A(86,50,88)           109.4258         estimate D2E/DX2                !
 ! A102  A(87,50,88)           106.6574         estimate D2E/DX2                !
 ! A103  A(53,52,54)           110.9396         estimate D2E/DX2                !
 ! A104  A(53,52,55)           108.427          estimate D2E/DX2                !
 ! A105  A(53,52,72)           117.3613         estimate D2E/DX2                !
 ! A106  A(54,52,55)           107.8535         estimate D2E/DX2                !
 ! A107  A(54,52,72)           106.487          estimate D2E/DX2                !
 ! A108  A(55,52,72)           105.2944         estimate D2E/DX2                !
 ! A109  A(52,53,89)           106.6547         estimate D2E/DX2                !
 ! A110  A(52,53,90)           113.2891         estimate D2E/DX2                !
 ! A111  A(52,53,91)           112.5549         estimate D2E/DX2                !
 ! A112  A(89,53,90)           107.463          estimate D2E/DX2                !
 ! A113  A(89,53,91)           107.4895         estimate D2E/DX2                !
 ! A114  A(90,53,91)           109.0777         estimate D2E/DX2                !
 ! A115  A(57,56,58)           109.961          estimate D2E/DX2                !
 ! A116  A(57,56,59)           110.4815         estimate D2E/DX2                !
 ! A117  A(57,56,72)           116.2168         estimate D2E/DX2                !
 ! A118  A(58,56,59)           107.9779         estimate D2E/DX2                !
 ! A119  A(58,56,72)           106.4517         estimate D2E/DX2                !
 ! A120  A(59,56,72)           105.3525         estimate D2E/DX2                !
 ! A121  A(56,57,83)           113.5579         estimate D2E/DX2                !
 ! A122  A(56,57,84)           107.1227         estimate D2E/DX2                !
 ! A123  A(56,57,85)           112.2315         estimate D2E/DX2                !
 ! A124  A(83,57,84)           108.4825         estimate D2E/DX2                !
 ! A125  A(83,57,85)           107.3849         estimate D2E/DX2                !
 ! A126  A(84,57,85)           107.8751         estimate D2E/DX2                !
 ! A127  A(61,60,62)           110.6147         estimate D2E/DX2                !
 ! A128  A(61,60,63)           109.9446         estimate D2E/DX2                !
 ! A129  A(61,60,73)           105.4346         estimate D2E/DX2                !
 ! A130  A(62,60,63)           108.3602         estimate D2E/DX2                !
 ! A131  A(62,60,73)           116.1307         estimate D2E/DX2                !
 ! A132  A(63,60,73)           106.1808         estimate D2E/DX2                !
 ! A133  A(60,62,80)           112.2469         estimate D2E/DX2                !
 ! A134  A(60,62,81)           113.4287         estimate D2E/DX2                !
 ! A135  A(60,62,82)           106.4959         estimate D2E/DX2                !
 ! A136  A(80,62,81)           109.4063         estimate D2E/DX2                !
 ! A137  A(80,62,82)           106.7582         estimate D2E/DX2                !
 ! A138  A(81,62,82)           108.1691         estimate D2E/DX2                !
 ! A139  A(65,64,66)           110.5317         estimate D2E/DX2                !
 ! A140  A(65,64,67)           110.5162         estimate D2E/DX2                !
 ! A141  A(65,64,73)           115.6379         estimate D2E/DX2                !
 ! A142  A(66,64,67)           107.9371         estimate D2E/DX2                !
 ! A143  A(66,64,73)           106.0793         estimate D2E/DX2                !
 ! A144  A(67,64,73)           105.7405         estimate D2E/DX2                !
 ! A145  A(64,65,77)           107.626          estimate D2E/DX2                !
 ! A146  A(64,65,78)           113.0606         estimate D2E/DX2                !
 ! A147  A(64,65,79)           111.9377         estimate D2E/DX2                !
 ! A148  A(77,65,78)           108.7708         estimate D2E/DX2                !
 ! A149  A(77,65,79)           107.621          estimate D2E/DX2                !
 ! A150  A(78,65,79)           107.6571         estimate D2E/DX2                !
 ! A151  A(69,68,70)           110.7797         estimate D2E/DX2                !
 ! A152  A(69,68,71)           108.8834         estimate D2E/DX2                !
 ! A153  A(69,68,73)           117.0575         estimate D2E/DX2                !
 ! A154  A(70,68,71)           108.0573         estimate D2E/DX2                !
 ! A155  A(70,68,73)           105.7719         estimate D2E/DX2                !
 ! A156  A(71,68,73)           105.8711         estimate D2E/DX2                !
 ! A157  A(68,69,74)           112.4081         estimate D2E/DX2                !
 ! A158  A(68,69,75)           107.0695         estimate D2E/DX2                !
 ! A159  A(68,69,76)           112.9311         estimate D2E/DX2                !
 ! A160  A(74,69,75)           107.429          estimate D2E/DX2                !
 ! A161  A(74,69,76)           108.987          estimate D2E/DX2                !
 ! A162  A(75,69,76)           107.7507         estimate D2E/DX2                !
 ! A163  A(42,72,48)           106.6015         estimate D2E/DX2                !
 ! A164  A(42,72,52)           112.1048         estimate D2E/DX2                !
 ! A165  A(42,72,56)           111.9914         estimate D2E/DX2                !
 ! A166  A(48,72,52)           108.4205         estimate D2E/DX2                !
 ! A167  A(48,72,56)           108.6685         estimate D2E/DX2                !
 ! A168  A(52,72,56)           108.9213         estimate D2E/DX2                !
 ! A169  A(45,73,60)           106.8973         estimate D2E/DX2                !
 ! A170  A(45,73,64)           111.9626         estimate D2E/DX2                !
 ! A171  A(45,73,68)           111.3443         estimate D2E/DX2                !
 ! A172  A(60,73,64)           108.1192         estimate D2E/DX2                !
 ! A173  A(60,73,68)           108.7309         estimate D2E/DX2                !
 ! A174  A(64,73,68)           109.6484         estimate D2E/DX2                !
 ! A175  A(65,78,93)           162.872          estimate D2E/DX2                !
 ! A176  A(93,92,94)           118.7573         estimate D2E/DX2                !
 ! A177  A(93,92,95)           120.8057         estimate D2E/DX2                !
 ! A178  A(94,92,95)           120.423          estimate D2E/DX2                !
 ! A179  A(47,93,78)            64.4102         estimate D2E/DX2                !
 ! A180  A(47,93,92)           100.8447         estimate D2E/DX2                !
 ! A181  A(47,93,100)          152.1042         estimate D2E/DX2                !
 ! A182  A(78,93,92)           122.9003         estimate D2E/DX2                !
 ! A183  A(78,93,100)          100.6168         estimate D2E/DX2                !
 ! A184  A(92,93,100)          106.9991         estimate D2E/DX2                !
 ! A185  A(92,94,98)           128.0058         estimate D2E/DX2                !
 ! A186  A(92,94,104)          113.1156         estimate D2E/DX2                !
 ! A187  A(98,94,104)           77.4634         estimate D2E/DX2                !
 ! A188  A(92,95,110)          127.7032         estimate D2E/DX2                !
 ! A189  A(97,96,98)           101.7147         estimate D2E/DX2                !
 ! A190  A(97,96,106)          119.1193         estimate D2E/DX2                !
 ! A191  A(98,96,106)          121.2929         estimate D2E/DX2                !
 ! A192  A(94,98,96)           164.367          estimate D2E/DX2                !
 ! A193  A(100,99,101)          96.6883         estimate D2E/DX2                !
 ! A194  A(100,99,113)         114.5874         estimate D2E/DX2                !
 ! A195  A(101,99,113)         112.9608         estimate D2E/DX2                !
 ! A196  A(93,100,99)          159.0873         estimate D2E/DX2                !
 ! A197  A(103,102,104)        101.6365         estimate D2E/DX2                !
 ! A198  A(106,105,107)        105.6385         estimate D2E/DX2                !
 ! A199  A(46,106,96)           79.2014         estimate D2E/DX2                !
 ! A200  A(46,106,105)          91.207          estimate D2E/DX2                !
 ! A201  A(109,108,110)        105.3441         estimate D2E/DX2                !
 ! A202  A(112,111,113)        105.4803         estimate D2E/DX2                !
 ! A203  L(45,46,106,1,-1)     168.8222         estimate D2E/DX2                !
 ! A204  L(45,47,93,1,-1)      175.0278         estimate D2E/DX2                !
 ! A205  L(94,104,102,1,-1)    169.4177         estimate D2E/DX2                !
 ! A206  L(96,106,105,46,-1)   170.4084         estimate D2E/DX2                !
 ! A207  L(95,110,108,48,-1)   174.2628         estimate D2E/DX2                !
 ! A208  L(99,113,111,6,-1)    178.1853         estimate D2E/DX2                !
 ! A209  L(45,46,106,1,-2)     178.2086         estimate D2E/DX2                !
 ! A210  L(45,47,93,1,-2)      172.4203         estimate D2E/DX2                !
 ! A211  L(94,104,102,1,-2)    185.1253         estimate D2E/DX2                !
 ! A212  L(96,106,105,46,-2)   180.9024         estimate D2E/DX2                !
 ! A213  L(95,110,108,48,-2)   176.6362         estimate D2E/DX2                !
 ! A214  L(99,113,111,6,-2)    182.3688         estimate D2E/DX2                !
 ! D1    D(3,1,2,6)            176.5438         estimate D2E/DX2                !
 ! D2    D(3,1,2,7)            -60.9251         estimate D2E/DX2                !
 ! D3    D(3,1,2,8)             55.3039         estimate D2E/DX2                !
 ! D4    D(4,1,2,6)            -63.0978         estimate D2E/DX2                !
 ! D5    D(4,1,2,7)             59.4333         estimate D2E/DX2                !
 ! D6    D(4,1,2,8)            175.6624         estimate D2E/DX2                !
 ! D7    D(5,1,2,6)             56.6535         estimate D2E/DX2                !
 ! D8    D(5,1,2,7)            179.1846         estimate D2E/DX2                !
 ! D9    D(5,1,2,8)            -64.5863         estimate D2E/DX2                !
 ! D10   D(1,2,6,9)           -177.2119         estimate D2E/DX2                !
 ! D11   D(1,2,6,10)           -60.4036         estimate D2E/DX2                !
 ! D12   D(1,2,6,32)            56.0607         estimate D2E/DX2                !
 ! D13   D(7,2,6,9)             59.8702         estimate D2E/DX2                !
 ! D14   D(7,2,6,10)           176.6786         estimate D2E/DX2                !
 ! D15   D(7,2,6,32)           -66.8572         estimate D2E/DX2                !
 ! D16   D(8,2,6,9)            -55.3055         estimate D2E/DX2                !
 ! D17   D(8,2,6,10)            61.5029         estimate D2E/DX2                !
 ! D18   D(8,2,6,32)           177.9671         estimate D2E/DX2                !
 ! D19   D(2,6,9,11)           -80.2389         estimate D2E/DX2                !
 ! D20   D(2,6,9,12)            34.8135         estimate D2E/DX2                !
 ! D21   D(2,6,9,13)           155.1027         estimate D2E/DX2                !
 ! D22   D(10,6,9,11)          163.2698         estimate D2E/DX2                !
 ! D23   D(10,6,9,12)          -81.6778         estimate D2E/DX2                !
 ! D24   D(10,6,9,13)           38.6114         estimate D2E/DX2                !
 ! D25   D(32,6,9,11)           44.5673         estimate D2E/DX2                !
 ! D26   D(32,6,9,12)          159.6197         estimate D2E/DX2                !
 ! D27   D(32,6,9,13)          -80.0911         estimate D2E/DX2                !
 ! D28   D(2,6,32,33)         -113.7842         estimate D2E/DX2                !
 ! D29   D(2,6,32,34)           64.707          estimate D2E/DX2                !
 ! D30   D(9,6,32,33)          121.5788         estimate D2E/DX2                !
 ! D31   D(9,6,32,34)          -59.93           estimate D2E/DX2                !
 ! D32   D(10,6,32,33)           2.6313         estimate D2E/DX2                !
 ! D33   D(10,6,32,34)        -178.8775         estimate D2E/DX2                !
 ! D34   D(6,9,13,14)         -176.1232         estimate D2E/DX2                !
 ! D35   D(6,9,13,15)          -59.4793         estimate D2E/DX2                !
 ! D36   D(6,9,13,22)           58.1218         estimate D2E/DX2                !
 ! D37   D(11,9,13,14)          59.2006         estimate D2E/DX2                !
 ! D38   D(11,9,13,15)         175.8445         estimate D2E/DX2                !
 ! D39   D(11,9,13,22)         -66.5544         estimate D2E/DX2                !
 ! D40   D(12,9,13,14)         -55.2811         estimate D2E/DX2                !
 ! D41   D(12,9,13,15)          61.3628         estimate D2E/DX2                !
 ! D42   D(12,9,13,22)         178.9639         estimate D2E/DX2                !
 ! D43   D(9,13,14,16)         -62.9416         estimate D2E/DX2                !
 ! D44   D(9,13,14,17)          52.3461         estimate D2E/DX2                !
 ! D45   D(9,13,14,18)         174.3963         estimate D2E/DX2                !
 ! D46   D(15,13,14,16)       -179.4442         estimate D2E/DX2                !
 ! D47   D(15,13,14,17)        -64.1564         estimate D2E/DX2                !
 ! D48   D(15,13,14,18)         57.8937         estimate D2E/DX2                !
 ! D49   D(22,13,14,16)         63.2618         estimate D2E/DX2                !
 ! D50   D(22,13,14,17)        178.5495         estimate D2E/DX2                !
 ! D51   D(22,13,14,18)        -59.4003         estimate D2E/DX2                !
 ! D52   D(9,13,22,23)        -117.2373         estimate D2E/DX2                !
 ! D53   D(9,13,22,24)          59.8107         estimate D2E/DX2                !
 ! D54   D(14,13,22,23)        117.7355         estimate D2E/DX2                !
 ! D55   D(14,13,22,24)        -65.2164         estimate D2E/DX2                !
 ! D56   D(15,13,22,23)          0.3345         estimate D2E/DX2                !
 ! D57   D(15,13,22,24)        177.3825         estimate D2E/DX2                !
 ! D58   D(13,14,18,19)       -178.0064         estimate D2E/DX2                !
 ! D59   D(13,14,18,20)        -58.0588         estimate D2E/DX2                !
 ! D60   D(13,14,18,21)         61.6856         estimate D2E/DX2                !
 ! D61   D(16,14,18,19)         59.6673         estimate D2E/DX2                !
 ! D62   D(16,14,18,20)        179.6148         estimate D2E/DX2                !
 ! D63   D(16,14,18,21)        -60.6407         estimate D2E/DX2                !
 ! D64   D(17,14,18,19)        -56.6015         estimate D2E/DX2                !
 ! D65   D(17,14,18,20)         63.346          estimate D2E/DX2                !
 ! D66   D(17,14,18,21)       -176.9096         estimate D2E/DX2                !
 ! D67   D(13,22,23,25)        176.1808         estimate D2E/DX2                !
 ! D68   D(13,22,23,26)         -1.5693         estimate D2E/DX2                !
 ! D69   D(24,22,23,25)         -0.9383         estimate D2E/DX2                !
 ! D70   D(24,22,23,26)       -178.6883         estimate D2E/DX2                !
 ! D71   D(13,22,24,27)       -175.9599         estimate D2E/DX2                !
 ! D72   D(13,22,24,28)          0.681          estimate D2E/DX2                !
 ! D73   D(23,22,24,27)          1.1699         estimate D2E/DX2                !
 ! D74   D(23,22,24,28)        177.8107         estimate D2E/DX2                !
 ! D75   D(22,23,25,29)          1.1244         estimate D2E/DX2                !
 ! D76   D(22,23,25,30)       -176.8558         estimate D2E/DX2                !
 ! D77   D(26,23,25,29)        178.8713         estimate D2E/DX2                !
 ! D78   D(26,23,25,30)          0.8911         estimate D2E/DX2                !
 ! D79   D(22,24,27,29)         -1.59           estimate D2E/DX2                !
 ! D80   D(22,24,27,31)        175.1792         estimate D2E/DX2                !
 ! D81   D(28,24,27,29)       -178.2576         estimate D2E/DX2                !
 ! D82   D(28,24,27,31)         -1.4884         estimate D2E/DX2                !
 ! D83   D(23,25,29,27)         -1.4849         estimate D2E/DX2                !
 ! D84   D(23,25,29,45)       -175.6281         estimate D2E/DX2                !
 ! D85   D(30,25,29,27)        176.5126         estimate D2E/DX2                !
 ! D86   D(30,25,29,45)          2.3694         estimate D2E/DX2                !
 ! D87   D(24,27,29,25)          1.7185         estimate D2E/DX2                !
 ! D88   D(24,27,29,45)        175.9506         estimate D2E/DX2                !
 ! D89   D(31,27,29,25)       -175.0733         estimate D2E/DX2                !
 ! D90   D(31,27,29,45)         -0.8413         estimate D2E/DX2                !
 ! D91   D(25,29,45,46)         23.3973         estimate D2E/DX2                !
 ! D92   D(25,29,45,47)        143.2502         estimate D2E/DX2                !
 ! D93   D(25,29,45,73)        -95.5972         estimate D2E/DX2                !
 ! D94   D(27,29,45,46)       -150.6872         estimate D2E/DX2                !
 ! D95   D(27,29,45,47)        -30.8344         estimate D2E/DX2                !
 ! D96   D(27,29,45,73)         90.3183         estimate D2E/DX2                !
 ! D97   D(6,32,33,35)         177.4536         estimate D2E/DX2                !
 ! D98   D(6,32,33,36)          -3.879          estimate D2E/DX2                !
 ! D99   D(34,32,33,35)         -1.0861         estimate D2E/DX2                !
 ! D100  D(34,32,33,36)        177.5813         estimate D2E/DX2                !
 ! D101  D(6,32,34,37)        -177.3121         estimate D2E/DX2                !
 ! D102  D(6,32,34,38)           2.8243         estimate D2E/DX2                !
 ! D103  D(33,32,34,37)          1.2245         estimate D2E/DX2                !
 ! D104  D(33,32,34,38)       -178.6392         estimate D2E/DX2                !
 ! D105  D(32,33,35,39)         -1.2486         estimate D2E/DX2                !
 ! D106  D(32,33,35,40)        177.3716         estimate D2E/DX2                !
 ! D107  D(36,33,35,39)       -179.9175         estimate D2E/DX2                !
 ! D108  D(36,33,35,40)         -1.2973         estimate D2E/DX2                !
 ! D109  D(32,34,37,39)          0.9671         estimate D2E/DX2                !
 ! D110  D(32,34,37,41)        179.7551         estimate D2E/DX2                !
 ! D111  D(38,34,37,39)       -179.1679         estimate D2E/DX2                !
 ! D112  D(38,34,37,41)         -0.3799         estimate D2E/DX2                !
 ! D113  D(33,35,39,37)          3.41           estimate D2E/DX2                !
 ! D114  D(33,35,39,42)       -177.76           estimate D2E/DX2                !
 ! D115  D(40,35,39,37)       -175.2068         estimate D2E/DX2                !
 ! D116  D(40,35,39,42)          3.6231         estimate D2E/DX2                !
 ! D117  D(34,37,39,35)         -3.2682         estimate D2E/DX2                !
 ! D118  D(34,37,39,42)        177.9026         estimate D2E/DX2                !
 ! D119  D(41,37,39,35)        177.9389         estimate D2E/DX2                !
 ! D120  D(41,37,39,42)         -0.8903         estimate D2E/DX2                !
 ! D121  D(35,39,42,43)       -150.0452         estimate D2E/DX2                !
 ! D122  D(35,39,42,44)        -30.8089         estimate D2E/DX2                !
 ! D123  D(35,39,42,72)         89.3248         estimate D2E/DX2                !
 ! D124  D(37,39,42,43)         28.7598         estimate D2E/DX2                !
 ! D125  D(37,39,42,44)        147.9962         estimate D2E/DX2                !
 ! D126  D(37,39,42,72)        -91.8702         estimate D2E/DX2                !
 ! D127  D(39,42,72,48)        178.3423         estimate D2E/DX2                !
 ! D128  D(39,42,72,52)         59.8537         estimate D2E/DX2                !
 ! D129  D(39,42,72,56)        -62.9311         estimate D2E/DX2                !
 ! D130  D(43,42,72,48)         55.1511         estimate D2E/DX2                !
 ! D131  D(43,42,72,52)        -63.3375         estimate D2E/DX2                !
 ! D132  D(43,42,72,56)        173.8778         estimate D2E/DX2                !
 ! D133  D(44,42,72,48)        -58.7374         estimate D2E/DX2                !
 ! D134  D(44,42,72,52)       -177.226          estimate D2E/DX2                !
 ! D135  D(44,42,72,56)         59.9892         estimate D2E/DX2                !
 ! D136  D(29,45,93,78)         91.3009         estimate D2E/DX2                !
 ! D137  D(29,45,93,92)       -148.6314         estimate D2E/DX2                !
 ! D138  D(29,45,93,100)        27.138          estimate D2E/DX2                !
 ! D139  D(46,45,93,78)       -149.1689         estimate D2E/DX2                !
 ! D140  D(46,45,93,92)        -29.1013         estimate D2E/DX2                !
 ! D141  D(46,45,93,100)       146.6682         estimate D2E/DX2                !
 ! D142  D(73,45,93,78)        -33.7207         estimate D2E/DX2                !
 ! D143  D(73,45,93,92)         86.3469         estimate D2E/DX2                !
 ! D144  D(73,45,93,100)       -97.8837         estimate D2E/DX2                !
 ! D145  D(29,45,106,96)       113.6969         estimate D2E/DX2                !
 ! D146  D(29,45,106,105)      -67.815          estimate D2E/DX2                !
 ! D147  D(47,45,106,96)        -2.4054         estimate D2E/DX2                !
 ! D148  D(47,45,106,105)      176.0827         estimate D2E/DX2                !
 ! D149  D(73,45,106,96)      -118.607          estimate D2E/DX2                !
 ! D150  D(73,45,106,105)       59.8812         estimate D2E/DX2                !
 ! D151  D(29,45,73,60)       -174.5324         estimate D2E/DX2                !
 ! D152  D(29,45,73,64)        -56.3057         estimate D2E/DX2                !
 ! D153  D(29,45,73,68)         66.8452         estimate D2E/DX2                !
 ! D154  D(46,45,73,60)         63.6732         estimate D2E/DX2                !
 ! D155  D(46,45,73,64)       -178.1            estimate D2E/DX2                !
 ! D156  D(46,45,73,68)        -54.9491         estimate D2E/DX2                !
 ! D157  D(47,45,73,60)        -51.7582         estimate D2E/DX2                !
 ! D158  D(47,45,73,64)         66.4685         estimate D2E/DX2                !
 ! D159  D(47,45,73,68)       -170.3806         estimate D2E/DX2                !
 ! D160  D(49,48,50,86)         49.5554         estimate D2E/DX2                !
 ! D161  D(49,48,50,87)        -70.1015         estimate D2E/DX2                !
 ! D162  D(49,48,50,88)        173.7957         estimate D2E/DX2                !
 ! D163  D(51,48,50,86)        169.2314         estimate D2E/DX2                !
 ! D164  D(51,48,50,87)         49.5745         estimate D2E/DX2                !
 ! D165  D(51,48,50,88)        -66.5283         estimate D2E/DX2                !
 ! D166  D(72,48,50,86)        -70.1805         estimate D2E/DX2                !
 ! D167  D(72,48,50,87)        170.1626         estimate D2E/DX2                !
 ! D168  D(72,48,50,88)         54.0598         estimate D2E/DX2                !
 ! D169  D(49,48,72,42)        161.5331         estimate D2E/DX2                !
 ! D170  D(49,48,72,52)        -77.5915         estimate D2E/DX2                !
 ! D171  D(49,48,72,56)         40.6566         estimate D2E/DX2                !
 ! D172  D(50,48,72,42)        -76.0163         estimate D2E/DX2                !
 ! D173  D(50,48,72,52)         44.8591         estimate D2E/DX2                !
 ! D174  D(50,48,72,56)        163.1071         estimate D2E/DX2                !
 ! D175  D(51,48,72,42)         46.5438         estimate D2E/DX2                !
 ! D176  D(51,48,72,52)        167.4192         estimate D2E/DX2                !
 ! D177  D(51,48,72,56)        -74.3327         estimate D2E/DX2                !
 ! D178  D(54,52,53,89)         48.8961         estimate D2E/DX2                !
 ! D179  D(54,52,53,90)        -69.1241         estimate D2E/DX2                !
 ! D180  D(54,52,53,91)        166.5365         estimate D2E/DX2                !
 ! D181  D(55,52,53,89)        -69.3654         estimate D2E/DX2                !
 ! D182  D(55,52,53,90)        172.6144         estimate D2E/DX2                !
 ! D183  D(55,52,53,91)         48.275          estimate D2E/DX2                !
 ! D184  D(72,52,53,89)        171.591          estimate D2E/DX2                !
 ! D185  D(72,52,53,90)         53.5708         estimate D2E/DX2                !
 ! D186  D(72,52,53,91)        -70.7687         estimate D2E/DX2                !
 ! D187  D(53,52,72,42)        -86.4757         estimate D2E/DX2                !
 ! D188  D(53,52,72,48)        156.1175         estimate D2E/DX2                !
 ! D189  D(53,52,72,56)         38.0301         estimate D2E/DX2                !
 ! D190  D(54,52,72,42)         38.4712         estimate D2E/DX2                !
 ! D191  D(54,52,72,48)        -78.9356         estimate D2E/DX2                !
 ! D192  D(54,52,72,56)        162.977          estimate D2E/DX2                !
 ! D193  D(55,52,72,42)        152.8273         estimate D2E/DX2                !
 ! D194  D(55,52,72,48)         35.4205         estimate D2E/DX2                !
 ! D195  D(55,52,72,56)        -82.6669         estimate D2E/DX2                !
 ! D196  D(58,56,57,83)        179.8075         estimate D2E/DX2                !
 ! D197  D(58,56,57,84)         60.0585         estimate D2E/DX2                !
 ! D198  D(58,56,57,85)        -58.1637         estimate D2E/DX2                !
 ! D199  D(59,56,57,83)         60.7165         estimate D2E/DX2                !
 ! D200  D(59,56,57,84)        -59.0325         estimate D2E/DX2                !
 ! D201  D(59,56,57,85)       -177.2546         estimate D2E/DX2                !
 ! D202  D(72,56,57,83)        -59.2147         estimate D2E/DX2                !
 ! D203  D(72,56,57,84)       -178.9637         estimate D2E/DX2                !
 ! D204  D(72,56,57,85)         62.8142         estimate D2E/DX2                !
 ! D205  D(57,56,72,42)        -63.0466         estimate D2E/DX2                !
 ! D206  D(57,56,72,48)         54.4499         estimate D2E/DX2                !
 ! D207  D(57,56,72,52)        172.3809         estimate D2E/DX2                !
 ! D208  D(58,56,72,42)         59.7856         estimate D2E/DX2                !
 ! D209  D(58,56,72,48)        177.2821         estimate D2E/DX2                !
 ! D210  D(58,56,72,52)        -64.7869         estimate D2E/DX2                !
 ! D211  D(59,56,72,42)        174.293          estimate D2E/DX2                !
 ! D212  D(59,56,72,48)        -68.2105         estimate D2E/DX2                !
 ! D213  D(59,56,72,52)         49.7205         estimate D2E/DX2                !
 ! D214  D(61,60,62,80)        179.0009         estimate D2E/DX2                !
 ! D215  D(61,60,62,81)         54.3555         estimate D2E/DX2                !
 ! D216  D(61,60,62,82)        -64.5099         estimate D2E/DX2                !
 ! D217  D(63,60,62,80)        -60.4125         estimate D2E/DX2                !
 ! D218  D(63,60,62,81)        174.942          estimate D2E/DX2                !
 ! D219  D(63,60,62,82)         56.0766         estimate D2E/DX2                !
 ! D220  D(73,60,62,80)         58.9183         estimate D2E/DX2                !
 ! D221  D(73,60,62,81)        -65.7272         estimate D2E/DX2                !
 ! D222  D(73,60,62,82)        175.4074         estimate D2E/DX2                !
 ! D223  D(61,60,73,45)        165.9503         estimate D2E/DX2                !
 ! D224  D(61,60,73,64)         45.2417         estimate D2E/DX2                !
 ! D225  D(61,60,73,68)        -73.7402         estimate D2E/DX2                !
 ! D226  D(62,60,73,45)        -71.2108         estimate D2E/DX2                !
 ! D227  D(62,60,73,64)        168.0806         estimate D2E/DX2                !
 ! D228  D(62,60,73,68)         49.0987         estimate D2E/DX2                !
 ! D229  D(63,60,73,45)         49.2974         estimate D2E/DX2                !
 ! D230  D(63,60,73,64)        -71.4111         estimate D2E/DX2                !
 ! D231  D(63,60,73,68)        169.607          estimate D2E/DX2                !
 ! D232  D(66,64,65,77)         45.6357         estimate D2E/DX2                !
 ! D233  D(66,64,65,78)        -74.5111         estimate D2E/DX2                !
 ! D234  D(66,64,65,79)        163.6953         estimate D2E/DX2                !
 ! D235  D(67,64,65,77)        -73.7891         estimate D2E/DX2                !
 ! D236  D(67,64,65,78)        166.0642         estimate D2E/DX2                !
 ! D237  D(67,64,65,79)         44.2705         estimate D2E/DX2                !
 ! D238  D(73,64,65,77)        166.1527         estimate D2E/DX2                !
 ! D239  D(73,64,65,78)         46.006          estimate D2E/DX2                !
 ! D240  D(73,64,65,79)        -75.7876         estimate D2E/DX2                !
 ! D241  D(65,64,73,45)        -68.4412         estimate D2E/DX2                !
 ! D242  D(65,64,73,60)         49.0564         estimate D2E/DX2                !
 ! D243  D(65,64,73,68)        167.4547         estimate D2E/DX2                !
 ! D244  D(66,64,73,45)         54.4608         estimate D2E/DX2                !
 ! D245  D(66,64,73,60)        171.9584         estimate D2E/DX2                !
 ! D246  D(66,64,73,68)        -69.6433         estimate D2E/DX2                !
 ! D247  D(67,64,73,45)        168.9322         estimate D2E/DX2                !
 ! D248  D(67,64,73,60)        -73.5702         estimate D2E/DX2                !
 ! D249  D(67,64,73,68)         44.8281         estimate D2E/DX2                !
 ! D250  D(64,65,78,93)        -73.8802         estimate D2E/DX2                !
 ! D251  D(77,65,78,93)        166.6298         estimate D2E/DX2                !
 ! D252  D(79,65,78,93)         50.2887         estimate D2E/DX2                !
 ! D253  D(70,68,69,74)        169.1487         estimate D2E/DX2                !
 ! D254  D(70,68,69,75)         51.4044         estimate D2E/DX2                !
 ! D255  D(70,68,69,76)        -67.0327         estimate D2E/DX2                !
 ! D256  D(71,68,69,74)         50.451          estimate D2E/DX2                !
 ! D257  D(71,68,69,75)        -67.2933         estimate D2E/DX2                !
 ! D258  D(71,68,69,76)        174.2696         estimate D2E/DX2                !
 ! D259  D(73,68,69,74)        -69.5006         estimate D2E/DX2                !
 ! D260  D(73,68,69,75)        172.7551         estimate D2E/DX2                !
 ! D261  D(73,68,69,76)         54.318          estimate D2E/DX2                !
 ! D262  D(69,68,73,45)        -85.539          estimate D2E/DX2                !
 ! D263  D(69,68,73,60)        156.9435         estimate D2E/DX2                !
 ! D264  D(69,68,73,64)         38.9251         estimate D2E/DX2                !
 ! D265  D(70,68,73,45)         38.3947         estimate D2E/DX2                !
 ! D266  D(70,68,73,60)        -79.1228         estimate D2E/DX2                !
 ! D267  D(70,68,73,64)        162.8588         estimate D2E/DX2                !
 ! D268  D(71,68,73,45)        152.9242         estimate D2E/DX2                !
 ! D269  D(71,68,73,60)         35.4067         estimate D2E/DX2                !
 ! D270  D(71,68,73,64)        -82.6117         estimate D2E/DX2                !
 ! D271  D(65,78,93,47)         61.2876         estimate D2E/DX2                !
 ! D272  D(65,78,93,92)        -25.1945         estimate D2E/DX2                !
 ! D273  D(65,78,93,100)      -143.5887         estimate D2E/DX2                !
 ! D274  D(94,92,93,47)          3.33           estimate D2E/DX2                !
 ! D275  D(94,92,93,78)         69.761          estimate D2E/DX2                !
 ! D276  D(94,92,93,100)      -174.9468         estimate D2E/DX2                !
 ! D277  D(95,92,93,47)       -178.0295         estimate D2E/DX2                !
 ! D278  D(95,92,93,78)       -111.5985         estimate D2E/DX2                !
 ! D279  D(95,92,93,100)         3.6938         estimate D2E/DX2                !
 ! D280  D(93,92,94,98)         56.9839         estimate D2E/DX2                !
 ! D281  D(93,92,94,104)       148.9346         estimate D2E/DX2                !
 ! D282  D(95,92,94,98)       -121.662          estimate D2E/DX2                !
 ! D283  D(95,92,94,104)       -29.7114         estimate D2E/DX2                !
 ! D284  D(93,92,95,110)      -172.7808         estimate D2E/DX2                !
 ! D285  D(94,92,95,110)         5.8372         estimate D2E/DX2                !
 ! D286  D(47,93,100,99)      -178.0123         estimate D2E/DX2                !
 ! D287  D(78,93,100,99)       127.8028         estimate D2E/DX2                !
 ! D288  D(92,93,100,99)        -1.6315         estimate D2E/DX2                !
 ! D289  D(92,94,98,96)        128.9272         estimate D2E/DX2                !
 ! D290  D(104,94,98,96)        19.2548         estimate D2E/DX2                !
 ! D291  D(92,94,102,103)       48.145          estimate D2E/DX2                !
 ! D292  D(98,94,102,103)      172.9869         estimate D2E/DX2                !
 ! D293  D(92,95,108,109)     -100.2077         estimate D2E/DX2                !
 ! D294  D(97,96,98,94)         -6.5842         estimate D2E/DX2                !
 ! D295  D(106,96,98,94)       128.4582         estimate D2E/DX2                !
 ! D296  D(97,96,106,46)       147.1655         estimate D2E/DX2                !
 ! D297  D(98,96,106,46)        19.5349         estimate D2E/DX2                !
 ! D298  D(101,99,100,93)      -10.7959         estimate D2E/DX2                !
 ! D299  D(113,99,100,93)      108.2557         estimate D2E/DX2                !
 ! D300  D(100,99,111,112)     146.146          estimate D2E/DX2                !
 ! D301  D(101,99,111,112)    -105.1161         estimate D2E/DX2                !
 ! D302  D(107,105,106,46)    -155.2847         estimate D2E/DX2                !
 --------------------------------------------------------------------------------
 Trust Radius=3.00D-01 FncErr=1.00D-07 GrdErr=1.00D-06 EigMax=2.50D+02 EigMin=1.00D-04
 Number of steps in this run=    642 maximum allowed number of steps=    678.
 GradGradGradGradGradGradGradGradGradGradGradGradGradGradGradGradGradGrad

 Leave Link  103 at Wed Apr 24 12:52:25 2024, MaxMem=  2013265920 cpu:               4.0 elap:               0.2
 (Enter /packages/apps/gaussian/g16/g16/l202.exe)
 Stoichiometry    C34H68N2O9
 Framework group  C1[X(C34H68N2O9)]
 Deg. of freedom   333
 Full point group                 C1      NOp   1
 Largest Abelian subgroup         C1      NOp   1
 Largest concise Abelian subgroup C1      NOp   1
                         Standard orientation:                         
 ---------------------------------------------------------------------
 Center     Atomic      Atomic             Coordinates (Angstroms)
 Number     Number       Type             X           Y           Z
 ---------------------------------------------------------------------
      1          6           0        2.655467   -5.289834   -1.636881
      2          6           0        3.556062   -4.660886   -0.580635
      3          1           0        2.757228   -6.375157   -1.639625
      4          1           0        1.607165   -5.049612   -1.458435
      5          1           0        2.911932   -4.926306   -2.634125
      6          6           0        3.530312   -3.121805   -0.572754
      7          1           0        3.273260   -5.026850    0.410567
      8          1           0        4.587114   -4.983902   -0.743986
      9          6           0        4.518445   -2.579638    0.475143
     10          1           0        3.874890   -2.788409   -1.557482
     11          1           0        4.065409   -2.628993    1.469183
     12          1           0        5.383286   -3.247433    0.507705
     13          6           0        5.048984   -1.160193    0.218494
     14          6           0        6.093009   -0.777765    1.277902
     15          1           0        5.557876   -1.176224   -0.751164
     16          1           0        5.615243   -0.763117    2.261445
     17          1           0        6.849615   -1.565433    1.317176
     18          6           0        6.765881    0.563937    1.014138
     19          1           0        7.522198    0.778584    1.769150
     20          1           0        7.256042    0.569359    0.038441
[...]
 0000127,-0.00000081,0.00000042,0.00000205,-0.00000017,-0.00000024,-0.0
 0000119,0.00000109,0.00000013,0.00000008,-0.00000053,-0.00000198,-0.00
 000347,-0.00000134,-0.00000153,0.00000062,-0.00000010,0.00000014,0.000
 00124,0.00000110,0.00000123,-0.00000024,-0.00000295,0.00000037,0.00000
 007,0.00000055,-0.00000110,-0.00000659,-0.00000508,0.00000067,-0.00000
 183,-0.00000110,-0.00000075,0.00000012,0.00000135,0.00000112,0.0000032
 2,-0.00000375,-0.00000739,0.00000470,0.00000358,0.00000311,-0.00000305
 ,-0.00000322,0.00000033,0.00000099,0.00000126,0.00000061,0.00000868,0.
 00000949,0.00000303,0.00005162,-0.00002362,-0.00002197,0.00001945,-0.0
 0000845,0.00001422,0.00000644,0.00003642,-0.00009764,-0.00001752,-0.00
 001740,0.00001826,0.00000230,-0.00000077,0.00000381,0.00004818,-0.0000
 5962,0.00036109,0.00004351,0.00000611,0.00000263,-0.00002309,-0.000010
 17,-0.00003896,-0.00000130,0.00000397,0.00000157,-0.00000885,0.0001104
 8,-0.00060338,-0.00006439,0.00008761,0.00018069,0.00002441,-0.00010432
 ,-0.00013565,0.00001206,-0.00001470,-0.00003646,-0.00000644,0.00000556
 ,0.00000704,0.00000007,-0.00000052,-0.00000098,0.00002248,0.00001573,-
 0.00001648,0.00012551,-0.00008564,-0.00004022,-0.00001057,0.00001491,0
 .00001804,0.00004072,0.00009051,0.00007706,-0.00002095,0.00001008,0.00
 002172,-0.00014247,-0.00003448,0.00018486,-0.00007285,0.00006872,-0.00
 014002,0.00031246,0.00038934,-0.00010639,-0.00006754,-0.00005142,-0.00
 021347,-0.00003191,0.00003995,0.00000603,0.00001225,-0.00000626,-0.000
 01277,0.00000231,0.00000256,0.00000355,-0.00000354,-0.00000317,-0.0000
 0002,0.00000195,0.00000221,-0.00000128,-0.00000192,-0.00000335,-0.0000
 0058,-0.00000076,-0.00000010,-0.00000042,0.00000528,0.00000972,0.00000
 191,0.00000165,-0.00000175,0.00000362,-0.00000214,-0.00000158,0.000002
 19,0.00000048,0.00000238,0.00000100,-0.00000110,-0.00000344,0.00000177
 ,0.00000387,0.00000184,-0.00000560,-0.00000045,0.00000010,0.00000173,-
 0.00000046,0.00000121,-0.00000055,0.00000003,-0.00000149,0.00000056,-0
 .00003099,-0.00006099,-0.00004119,-0.00000573,-0.00000409,-0.00000036,
 0.00000026,-0.00000097,-0.00000149,-0.00000088,-0.00000011,0.00000076,
 0.00000118,0.00000150,0.00000055,-0.00000440,-0.00000085,-0.00000182,0
 .00001583,0.00001639,0.00000478,0.00000188,0.00000019,0.00000187,0.000
 00223,0.00000189,-0.00000241,-0.00000191,-0.00000210,0.00000110,0.0000
 0083,0.00000254,-0.00000062,-0.00000205,0.00000044,-0.00000371,-0.0000
 0248,0.00000652,-0.00000209,-0.00000077,-0.00000012,-0.00000148,-0.000
 07157,-0.00004923,-0.00005399,-0.00001149,-0.00002112,0.00001948,0.000
 01140,0.00003262,-0.00010702,0.00001758,-0.00008519,-0.00002367,0.0000
 0725,-0.00000354,0.00000538,0.00005492,-0.00006594,0.00000820,0.000028
 10,0.00007464,-0.00014479,-0.00003459,-0.00010733,0.00014515,-0.000011
 61,-0.00005996,0.00011725,-0.00002195,-0.00007759,0.00009531,-0.000015
 21,-0.00000362,0.00002881,0.00000320,0.00000235,-0.00000582,0.00001474
 ,-0.00000400,-0.00003479,0.00011342,-0.00190368,-0.00028821,0.00008825
 ,0.00017541,-0.00020011,-0.00004103,0.00008921,-0.00003242,0.00000455,
 -0.00001452,0.00002409,-0.00000097,0.00000881,-0.00000991,-0.00000968,
 0.00000176,-0.00001587,-0.00000863,-0.00000830,0.00000670,0.00001041,0
 .00000724,-0.00000735,0.00000178,0.00000221,-0.00000145,0.00003393,-0.
 00002877,0.00002090,-0.00000704,0.00000244,0.00000047,-0.00003428,0.00
 001950,-0.00001734,0.02828904,0.20645531,-0.47163264,-0.02890377,-0.20
 000846,0.47145851,0.00000020,-0.00000515,0.00000122,0.00000870,0.00001
 469,0.00001914,0.00000556,-0.00001613,-0.00000068,0.00000701,0.0000168
 4,0.00000707,-0.00000090,0.00000572,-0.00000524,-0.00003066,0.00003270
 ,-0.00003026,-0.00000657,0.00000959,-0.00000865,0.00001264,-0.00001387
 ,-0.00000898,-0.00001996,-0.00001816,0.00002118,0.00002519,-0.00000534
 ,-0.00002121,-0.00000856,0.00000391,-0.00001771,0.00002064,-0.00000005
 ,-0.00000120,-0.00000492,-0.00001101,-0.00000437,-0.00001508,0.0000066
 4,0.00000893,0.00000442,0.00000429,-0.00000977,0.00000099,-0.00000092,
 -0.00000889,0.00000152,-0.00000173,-0.00000180,0.00000323,-0.00000246,
 0.00000195,0.00000531,0.00000324,0.00000541,0.00000181,0.00000142,-0.0
 0000686,-0.00000373,-0.00000101,-0.00000027,-0.00002699,0.00002401,0.0
 0000920,-0.00000112,0.00003279,-0.00001264,0.00003001,-0.00001524,0.00
 003528,0.00000766,0.00001825,-0.00002230,-0.00000513,-0.00000359,-0.00
 000576,-0.00003755,0.00005106,0.00001162,-0.00005260,0.00000622,-0.000
 01398,0.00004743,-0.00004210,0.00001148,0.00000805,-0.00000817,-0.0000
 0654,0.00002655,-0.00008598,0.00001721,0.00002567,0.00002794,0.0000487
 9,0.00004351,-0.00000708,-0.00009563,0.00002052,0.00008607,-0.00038974
 ,-0.00011108,0.00009862,-0.00006352,0.00000372,0.00000794,-0.00001895,
 -0.00031102,-0.00069514,0.00051165,-0.00004098,0.00002302,0.00002250,0
 .00027026,-0.00011690,0.00003250,0.00004382,0.00002895,-0.00005358,-0.
 00065566,0.00120990,0.00099320,0.00019847,0.00013375,0.00009527,0.0006
 2357,-0.00009475,-0.00008707,-0.00003756,-0.00001996,-0.00007221,-0.00
 000621,-0.00010741,0.00002048,0.00000211,0.00000965,-0.00000103,0.0001
 1586,0.00005813,-0.00006099,0.00076546,-0.00006408,-0.00029865,-0.0001
 2279,0.00005472,0.00022666,-0.00044569,-0.00062435,-0.00003105,-0.0000
 5634,0.00003002,0.00002906,-0.00000582,0.00004333,-0.00020581,0.000004
 36,0.00001138,0.00004133,0.00021478,-0.00033063,0.00029124,-0.00002727
 ,-0.00006847,-0.00003614,-0.00005510,0.00001011,-0.00008921,0.00001051
 ,0.00001021,0.00001464,-0.00001186,0.00003472,0.00006547,-0.00000859,-
 0.00002189,-0.00000966,0.00005657,-0.00000900,0.00000203,-0.00001174,0
 .00000011,-0.00000029,-0.00001376,0.00000107,-0.00000104,0.00002480,0.
 00002705,0.00000500,0.00001455,-0.00000532,-0.00000634,-0.00002095,-0.
 00000798,0.00000475,-0.00001510,-0.00001365,0.00000134,-0.00000459,0.0
 0000287,0.00000400,0.00000945,-0.00000322,-0.00000372,0.00000452,-0.00
 000419,0.00000386,0.00000482,-0.00000744,0.00000132,-0.00000194,0.0000
 0663,0.00000294,-0.00027877,0.00004480,-0.00008718,-0.00005378,0.00003
 885,0.00001074,-0.00000194,0.00000304,0.00000122,-0.00000187,0.0000015
 7,-0.00000186,-0.00000910,-0.00000552,-0.00000314,-0.00000801,-0.00002
 174,-0.00001396,0.00008040,0.00002391,0.00002283,-0.00000223,0.0000276
 1,-0.00000264,0.00001553,0.00000398,-0.00000563,-0.00000280,-0.0000087
 0,0.00000230,-0.00000347,0.00001298,-0.00000355,-0.00002324,0.00000707
 ,-0.00003026,-0.00001014,0.00000482,0.00001252,0.00001181,-0.00001653,
 0.00000155,-0.00003173,-0.00004537,-0.00004364,0.00013367,0.00012307,0
 .00020802,-0.00049600,0.00087688,-0.00085708,-0.00002019,0.00001378,0.
 00001663,-0.00001896,0.00005052,0.00003905,-0.00003165,-0.00000447,0.0
 0000179,0.00079703,0.00035830,-0.00047176,-0.00081880,-0.00024629,0.00
 082300,-0.00019755,-0.00020669,0.00040461,-0.00063143,-0.00045236,0.00
 022742,-0.00012210,0.00002673,0.00010378,0.00003770,0.00000917,-0.0000
 1734,0.00009573,-0.00003929,-0.00016237,-0.01552993,-0.00453667,0.0019
 7932,0.00188005,-0.00316308,-0.00281903,0.00039775,0.00627647,0.000729
 25,-0.00008133,-0.00006601,0.00010768,0.00003190,0.00003891,-0.0000792
 8,0.00003620,0.00001980,-0.00003383,-0.00005267,0.00001541,0.00000085,
 0.00005945,0.00000640,-0.00001760,0.00000528,-0.00000499,-0.00000281,0
 .00001347,-0.00015895,0.00015251,-0.00001675,0.00001969,-0.00002655,0.
 00003018,0.00010507,-0.00007200,-0.01997011,0.03017570,0.00598171,0.00
 083235,-0.00333702,0.00024759,0.03345962,0.00004168,-0.00004250,-0.000
 00341,-0.00000778,0.00003590,-0.00006859,0.00000519,-0.00001603,-0.000
 02143,-0.00002655,0.00002446,-0.00002500,-0.00002202,-0.00001000,0.000
 02818,0.00005487,-0.00001046,0.00006848,0.00002310,-0.00002392,0.00004
 424,-0.00003695,0.00000628,0.00001386,0.00009476,0.00003813,-0.0000211
 0,-0.00004977,0.00000322,0.00004827,0.00000033,0.00002482,0.00002566,-
 0.00001186,-0.00004330,-0.00000313,-0.00004979,0.00008891,0.00001175,0
 .00001498,-0.00006167,-0.00000432,0.00001812,-0.00002827,-0.00000423,-
 0.00001429,0.00002270,-0.00000457,0.00004952,-0.00001795,0.00000936,-0
 .00002824,0.00001898,-0.00000636,-0.00000162,-0.00000872,0.00000459,-0
 .00000221,-0.00000427,-0.00000244,0.00000482,-0.00003127,-0.00000124,-
 0.00004135,0.00001066,0.00000175,0.00005531,-0.00012698,-0.00002511,0.
 00007739,-0.00002052,-0.00019025,-0.00001143,-0.00006446,0.00001070,0.
 00004564,0.00000620,-0.00002446,-0.00015730,0.00000248,0.00022981,0.00
 001466,0.00003253,0.00006627,-0.00000816,0.00009722,-0.00005529,0.0000
 0146,0.00002592,0.00000943,-0.00015977,0.00001998,-0.00001674,0.000043
 00,0.00008028,-0.00010375,-0.00000460,-0.00005001,0.00012295,-0.000215
 29,-0.00028470,0.00042692,0.00016197,-0.00015773,0.00018913,0.00000016
 ,0.00000369,0.00005557,0.00005484,-0.00015951,-0.00036525,0.00018413,0
 .00003564,-0.00004140,-0.00067064,-0.00003213,0.00001824,-0.00004667,0
 .00003797,0.00012552,0.00154569,0.00084456,-0.00162518,0.00014476,0.00
 034299,0.00020125,0.00001104,0.00125057,0.00151304,-0.00003450,0.00009
 070,0.00024787,0.00013243,0.00037918,-0.00017382,0.00003928,0.00001351
 ,0.00001464,-0.00074154,-0.00049361,0.00059533,-0.00046048,-0.00007136
 ,0.00006128,0.00002012,-0.00006240,-0.00013893,0.00048952,-0.00016369,
 -0.00006332,0.00004526,0.00016152,0.00019101,-0.00015583,0.00062415,-0
 .00055701,0.00022280,-0.00009024,0.00020047,-0.00055722,-0.00026068,-0
 .00271767,0.00005369,-0.00003248,0.00017471,-0.00005897,-0.00035937,-0
 .00009444,-0.00000697,0.00000313,0.00007224,0.00006132,0.00003667,-0.0
 0003678,-0.00007714,-0.00003977,-0.00011215,-0.00011954,-0.00006523,0.
 00005363,0.00004233,0.00000707,0.00000566,0.00004670,-0.00000130,-0.00
 000240,-0.00009514,-0.00017656,0.00001624,-0.00013838,0.00001072,0.000
 25627,0.00013727,0.00006501,-0.00009588,0.00003490,0.00001026,-0.00001
 794,0.00005607,0.00006648,-0.00008052,-0.00014582,-0.00006795,0.000106
 89,0.00000902,0.00003073,-0.00003668,0.00000997,0.00002485,-0.00000089
 ,0.00001696,0.00000952,-0.00000881,0.00023956,-0.00036220,0.00013063,0
 .00021652,-0.00003051,-0.00021047,-0.00001598,-0.00002515,0.00000809,0
 .00002555,0.00000679,-0.00002205,0.00000191,0.00000242,0.00002056,-0.0
 0001972,-0.00002851,0.00000900,-0.00040594,-0.00036911,0.00004871,-0.0
 0000771,-0.00005939,-0.00001035,-0.00004182,-0.00001342,0.00005130,0.0
 0003467,0.00005356,-0.00004292,-0.00000028,-0.00004768,0.00002288,0.00
 002557,0.00005932,0.00004612,0.00000851,-0.00006003,0.00001871,-0.0000
 2227,0.00008233,0.00004816,-0.00067229,-0.00051439,-0.00033148,0.00015
 438,0.00006520,0.00023094,0.00070361,0.00155104,0.00067887,0.00002863,
 -0.00032453,-0.00012930,-0.00003083,0.00006535,-0.00006349,-0.00007336
 ,0.00010978,0.00021773,0.00141055,-0.00268945,0.00521119,0.00043408,0.
 00366104,-0.00648265,-0.00024677,0.00169018,-0.00429745,-0.00129497,0.
 00123986,-0.00399655,0.00030521,-0.00044616,-0.00100450,-0.00000658,0.
 00012221,0.00012920,-0.00047867,0.00035006,0.00138210,-0.00180221,0.01
 088586,-0.00454982,-0.00671088,-0.00446930,0.00942026,0.00556866,0.001
 22128,0.00277772,-0.00043973,-0.00050224,-0.00068071,0.00002700,0.0000
 9676,0.00017979,0.00073276,0.00031982,0.00084034,0.00015543,-0.0000578
 6,-0.00019055,-0.00016473,0.00000131,0.00014899,-0.00002949,0.00002299
 ,0.00003848,-0.00118857,-0.00028717,-0.00058372,0.00013069,-0.00004100
 ,0.00006061,0.00181902,0.00015584,0.00074374,0.02605319,-0.38563185,-0
 .02668681,0.00135603,-0.01293123,-0.00485906,-0.02568599,0.38561961,0.
 00000988,0.00000149,-0.00000747,-0.00003292,-0.00002025,0.00000814,-0.
 00000765,0.00001490,0.00000172,-0.00001235,-0.00001675,-0.00000074,0.0
 0000276,-0.00000451,-0.00000193,0.00004662,-0.00000632,-0.00000464,0.0
 0001017,-0.00000365,-0.00000339,-0.00001832,0.00002216,0.00000586,-0.0
 0000226,0.00002580,0.00002971,-0.00001803,0.00000524,0.00000918,0.0000
 1236,-0.00000317,0.00000307,-0.00002589,-0.00000063,-0.00000547,0.0000
 0723,0.00001428,-0.00000961,0.00000121,-0.00000694,0.00001851,0.000000
 19,-0.00000169,-0.00000155,0.00000408,-0.00000109,-0.00000438,-0.00000
 197,0.00000203,0.00000025,-0.00000374,-0.00000121,-0.00000897,-0.00000
 956,-0.00000431,-0.00000375,0.00000246,0.00000013,-0.00000023,0.000002
 95,0.00000144,0.00000470,-0.00000065,-0.00000497,-0.00000139,-0.000002
 33,-0.00001860,-0.00001489,0.00000270,-0.00003181,0.00000418,-0.000005
 93,-0.00000402,-0.00001451,0.00000690,0.00000699,-0.00000014,-0.000027
 32,-0.00000770,0.00000732,0.00000029,0.00001599,0.00001436,-0.00001134
 ,-0.00000698,-0.00001099,0.00000573,0.00000755,0.00000158,0.00001561,0
 .00001596,0.00002761,-0.00005833,-0.00003582,0.00002957,-0.00011812,0.
 00002494,-0.00000138,-0.00003999,-0.00007223,0.00024731,-0.00006424,0.
 00004111,-0.00008812,-0.00002936,0.00000899,0.00002329,0.00001572,0.00
 046202,-0.00041594,-0.00003832,0.00004243,-0.00001051,0.00020206,-0.00
 001082,0.00012984,0.00001208,0.00000908,0.00000444,0.00063557,-0.00090
 082,-0.00013137,0.00026714,-0.00060611,-0.00074704,-0.00019183,0.00099
 772,-0.00155120,-0.00005544,0.00016980,0.00034690,0.00000722,0.0000573
 6,0.00000438,0.00000881,0.00000646,-0.00000333,-0.00000629,0.00000465,
 0.00002144,0.00008238,0.00009321,-0.00014722,-0.00000244,0.00002970,0.
 00010517,-0.00005508,-0.00056094,-0.00029849,-0.00004109,0.00005451,-0
 .00001302,-0.00009822,-0.00000961,-0.00044063,-0.00001436,0.00005150,0
 .00012089,0.00031705,-0.00087280,0.00067690,0.00000086,0.00002167,0.00
 000216,0.00007778,0.00013846,-0.00019128,-0.00001052,-0.00000448,0.000
 01642,-0.00001727,-0.00001776,0.00002146,0.00002515,0.00002014,0.00007
 834,-0.00000210,-0.00000239,0.00000348,-0.00000418,-0.00001115,-0.0000
 0166,0.00000013,0.00000163,-0.00000061,0.00001236,0.00001715,0.0000112
 7,-0.00000754,-0.00000474,0.00004100,0.00000275,-0.00000142,-0.0000081
 2,0.00000325,0.00000646,0.00000155,0.00000216,-0.00000249,-0.00000502,
 -0.00000039,-0.00000022,-0.00000624,-0.00000142,0.00000274,0.00000133,
 0.00000168,0.00000596,-0.00000155,0.00000135,-0.00000336,0.00000074,-0
 .00015177,-0.00001970,-0.00002150,-0.00000208,-0.00001516,-0.00002468,
 -0.00000138,-0.00000522,-0.00000407,-0.00000036,-0.00000011,0.00000036
 ,0.00000395,0.00000464,0.00000326,-0.00001918,-0.00001273,-0.00000850,
 0.00001362,0.00001218,0.00003320,0.00000406,-0.00000197,0.00000312,0.0
 0000468,0.00000904,-0.00000258,-0.00000399,-0.00000329,-0.00000107,0.0
 0000217,0.00000420,-0.00000034,-0.00000132,0.00001220,-0.00001307,0.00
 000284,0.00000813,0.00002019,0.00000852,0.00003339,-0.00002472,0.00002
 779,0.00006631,0.00002934,0.00018393,0.00014298,0.00020184,-0.00081936
 ,0.00063444,-0.00011698,-0.00000673,0.00008718,0.00004156,-0.00000252,
 -0.00002618,0.00000517,-0.00001566,0.00001228,-0.00000446,0.00023001,0
 .00007977,0.00015274,0.00020262,0.00009849,-0.00105559,-0.00007686,-0.
 00000899,-0.00015354,-0.00016834,-0.00021146,-0.00045706,-0.00002608,-
 0.00013280,0.00002174,-0.00000074,0.00003370,-0.00001286,-0.00000124,0
 .00007979,0.00003221,0.00204631,-0.00426206,-0.01093771,-0.00197279,0.
 00329526,0.00190964,0.00037401,0.00173000,-0.00002892,0.00002214,-0.00
 012194,0.00000908,-0.00002427,0.00003732,0.00000412,0.00001930,0.00005
 996,0.00003114,-0.00003257,-0.00004638,0.00001051,0.00004344,0.0000437
 5,-0.00002267,0.00000407,0.00001025,-0.00000398,0.00004091,-0.00009547
 ,-0.00003665,-0.00001590,-0.00001055,0.00001842,0.00001392,0.00007654,
 0.00002481,0.00959678,-0.08086130,-0.06532155,-0.00309296,0.04691660,0
 .00125670,-0.00717884,0.03320706,0.07657599\\-0.00000133,0.00000150,-0
 .00000200,-0.00000011,0.00000087,0.00000167,-0.00000096,-0.00000080,-0
 .00000106,-0.00000147,-0.00000023,-0.00000053,-0.00000054,0.00000007,-
 0.00000137,-0.00000122,0.00000329,-0.00000866,-0.00000016,-0.00000134,
 -0.00000196,-0.00000025,-0.00000131,-0.00000179,0.00000014,-0.00000134
 ,0.00000470,-0.00000003,-0.00000091,-0.00000091,0.00000111,-0.00000200
 ,0.00000012,0.00000007,-0.00000154,-0.00000051,-0.00000359,0.00000114,
 -0.00000746,-0.00000060,0.00000189,-0.00000140,-0.00000009,-0.00000289
 ,-0.00000153,0.00000006,-0.00000006,-0.00000102,0.00000101,-0.00000077
 ,-0.00000175,0.00000075,-0.00000093,-0.00000276,0.00000086,-0.00000088
 ,-0.00000083,0.00000024,-0.00000083,-0.00000119,-0.00000003,0.,-0.0000
 0055,0.00000121,0.00000040,0.00000037,0.00000423,0.00000168,-0.0000024
 6,0.00000068,-0.00000136,0.00000033,0.00000120,0.00000085,0.00000413,-
 0.00000125,-0.00000084,-0.00000203,0.00000067,0.00000362,0.00000278,-0
 .00000019,-0.00000049,-0.00000069,-0.00000312,0.00000288,0.00000114,-0
 .00000084,-0.00000042,-0.00000354,-0.00000284,-0.00000103,-0.00000104,
 -0.00000336,-0.00000564,0.00000383,0.00000083,-0.00000104,-0.00000305,
 0.00000176,-0.00000120,-0.00000055,-0.00000293,0.00000405,0.00000229,-
 0.00000133,-0.00000044,-0.00000112,0.00000559,-0.00000047,0.00000180,0
 .00000110,-0.00000100,-0.00000063,0.00000028,0.00000141,-0.00000686,-0
 .00000349,0.00000047,-0.00000256,0.00000227,0.00000015,-0.00000124,-0.
 00000335,0.00000444,0.00000680,-0.00000007,0.00000273,-0.00000113,0.00
 000154,0.00000178,-0.00000111,0.00000915,0.00001232,-0.00000805,0.0000
 0894,-0.00000791,-0.00000289,-0.00000500,-0.00001251,-0.00000123,-0.00
 000510,0.00000390,0.00000319,-0.00000278,0.00000234,0.00000022,-0.0000
 0410,0.00001003,0.00000126,0.00000079,-0.00000481,-0.00000389,0.000002
 86,-0.00000601,-0.00000362,-0.00000475,0.00000406,-0.00000231,-0.00000
 175,-0.00000497,-0.00000022,0.00000445,-0.00000232,-0.00000212,0.00000
 344,0.00000078,0.00000757,0.00000394,0.00000202,0.00000003,0.00000265,
 -0.00000178,-0.00000187,-0.00000170,0.00000136,0.00000122,-0.00000185,
 -0.00000534,-0.00000145,0.00000155,0.00000021,0.00000429,0.00000190,0.
 00000270,0.00000115,0.00000356,0.00000452,-0.00000346,-0.00000170,0.00
 000045,-0.00000097,-0.00000139,0.00000161,0.00000602,0.00000263,-0.000
 00173,0.00000007,0.00000156,0.00000043,-0.00000008,-0.00000343,-0.0000
 0199,-0.00000440,-0.00000319,-0.00000133,-0.00000166,-0.00000010,0.000
 00152,-0.00000041,-0.00000189,0.00000168,-0.00000153,-0.00000004,-0.00
 001070,-0.00000072,-0.00000646,-0.00000588,0.00000643,0.00000086,-0.00
 000102,0.00000066,0.00000106,0.00000016,-0.00000005,0.00000097,-0.0000
 0302,0.00000060,-0.00000018,-0.00000124,0.00000123,0.00000829,0.000005
 72,0.00000119,0.00000346,0.00000149,0.00000300,-0.00000290,0.00000872,
 0.00000599,0.00000484,0.00000099,-0.00000031,0.00000058,0.00000118,0.0
 0000038,-0.00000622,-0.00000163,0.00000234,-0.00000035,0.00000159,0.00
 000007,0.00000201,-0.00000334,0.00000121,-0.00000159,0.00000719,0.0000
 0244,-0.00000295,-0.00000265,0.00000743,0.00000101,-0.00000139,-0.0000
 0138,-0.00000002,-0.00000092,-0.00000053,-0.00000083,-0.00000146,-0.00
 000189,-0.00000088,0.00000015,-0.00000245,-0.00003347,-0.00000520,-0.0
 0000087,0.00000795,-0.00000077,0.00000419,-0.00000316,-0.00000811,0.00
 001741,0.00002930,0.00002119,-0.00001771,0.00001814,-0.00000030,0.0000
 0443,-0.00001105,0.00000465,0.00000407,-0.00001149,-0.00000919,-0.0000
 0500,0.00000314,-0.00000833,0.00002032,0.00000336,0.00000554,-0.000012
 62,-0.00001091,-0.00000329,-0.00000584,-0.00002778,0.00000706,0.000008
 86,0.00000828,-0.00001002,0.00000363,0.00001088,0.00000411,0.00000736,
 0.00000557,-0.00000156,0.00000678,0.00000387,0.00000232,-0.00000223,-0
 .00000289,-0.00000013,-0.00000260,0.00001022,0.00000745,-0.00003048,0.
 00000224,0.00000496,0.00001375,-0.00000835,-0.00000918,0.00000590,0.00
 000493,-0.00000286,-0.00000751,-0.00000061,0.00000530,0.00000319,0.000
 00007,-0.00000022,0.00000973\\\@


 SOME THINGS ARE EASY, THEY ARE ONLY HARD TO DO.
            -- A. EINSTEIN TO J. O. HIRSCHFELDER
 THE ONLY TROUBLE WITH A SURE THING IS THE UNCERTAINTY.
     -- FROM A TEABAG (BELONGING TO W.H.?)
 Job cpu time:      88 days 19 hours 24 minutes 41.3 seconds.
 Elapsed time:       2 days  6 hours 41 minutes 11.3 seconds.
 File lengths (MBytes):  RWF= 121093 Int=      0 D2E=      0 Chk=    265 Scr=      1
 Normal termination of Gaussian 16 at Sat Apr 27 02:17:48 2024.
