 Entering Gaussian System, Link 0=g16
 Input=8water.gjf
 Output=8water.log
 Initial command:
 /packages/apps/gaussian/g16/g16/l1.exe "/scratch/mdturne9/3-5-ethyl/ofreq/Gau-3403876.inp" -scrdir="/scratch/mdturne9/3-5-ethyl/ofreq/"
 Entering Link 1 = /packages/apps/gaussian/g16/g16/l1.exe PID=   3403882.
  
 Copyright (c) 1988,1990,1992,1993,1995,1998,2003,2009,2016,
            Gaussian, Inc.  All Rights Reserved.
  
 This is part of the Gaussian(R) 16 program.  It is based on
 the Gaussian(R) 09 system (copyright 2009, Gaussian, Inc.),
 the Gaussian(R) 03 system (copyright 2003, Gaussian, Inc.),
 the Gaussian(R) 98 system (copyright 1998, Gaussian, Inc.),
 the Gaussian(R) 94 system (copyright 1995, Gaussian, Inc.),
 the Gaussian 92(TM) system (copyright 1992, Gaussian, Inc.),
 the Gaussian 90(TM) system (copyright 1990, Gaussian, Inc.),
 the Gaussian 88(TM) system (copyright 1988, Gaussian, Inc.),
 the Gaussian 86(TM) system (copyright 1986, Carnegie Mellon
 University), and the Gaussian 82(TM) system (copyright 1983,
 Carnegie Mellon University). Gaussian is a federally registered
 trademark of Gaussian, Inc.
  
 This software contains proprietary and confidential information,
 including trade secrets, belonging to Gaussian, Inc.
  
 This software is provided under written license and may be
 used, copied, transmitted, or stored only in accord with that
 written license.
  
 The following legend is applicable only to US Government
 contracts under FAR:
  
                    RESTRICTED RIGHTS LEGEND
  
 Use, reproduction and disclosure by the US Government is
 subject to restrictions as set forth in subparagraphs (a)
 and (c) of the Commercial Computer Software - Restricted
 Rights clause in FAR 52.227-19.
  
 Gaussian, Inc.
 340 Quinnipiac St., Bldg. 40, Wallingford CT 06492
  
  
 ---------------------------------------------------------------
 Warning -- This program may not be used in any manner that
 competes with the business of Gaussian, Inc. or will provide
 assistance to any competitor of Gaussian, Inc.  The licensee
 of this program is prohibited from giving any competitor of
 Gaussian, Inc. access to this program.  By using this program,
 the user acknowledges that Gaussian, Inc. is engaged in the
 business of creating and licensing software in the field of
 computational chemistry and represents and warrants to the
 licensee that it is not a competitor of Gaussian, Inc. and that
 it will not use this program in any manner prohibited above.
 ---------------------------------------------------------------
  

 Cite this work as:
 Gaussian 16, Revision A.03,
 M. J. Frisch, G. W. Trucks, H. B. Schlegel, G. E. Scuseria, 
 M. A. Robb, J. R. Cheeseman, G. Scalmani, V. Barone, 
 G. A. Petersson, H. Nakatsuji, X. Li, M. Caricato, A. V. Marenich, 
 J. Bloino, B. G. Janesko, R. Gomperts, B. Mennucci, H. P. Hratchian, 
 J. V. Ortiz, A. F. Izmaylov, J. L. Sonnenberg, D. Williams-Young, 
 F. Ding, F. Lipparini, F. Egidi, J. Goings, B. Peng, A. Petrone, 
 T. Henderson, D. Ranasinghe, V. G. Zakrzewski, J. Gao, N. Rega, 
 G. Zheng, W. Liang, M. Hada, M. Ehara, K. Toyota, R. Fukuda, 
 J. Hasegawa, M. Ishida, T. Nakajima, Y. Honda, O. Kitao, H. Nakai, 
 T. Vreven, K. Throssell, J. A. Montgomery, Jr., J. E. Peralta, 
 F. Ogliaro, M. J. Bearpark, J. J. Heyd, E. N. Brothers, K. N. Kudin, 
 V. N. Staroverov, T. A. Keith, R. Kobayashi, J. Normand, 
 K. Raghavachari, A. P. Rendell, J. C. Burant, S. S. Iyengar, 
 J. Tomasi, M. Cossi, J. M. Millam, M. Klene, C. Adamo, R. Cammi, 
 J. W. Ochterski, R. L. Martin, K. Morokuma, O. Farkas, 
 J. B. Foresman, and D. J. Fox, Gaussian, Inc., Wallingford CT, 2016.
 
 ******************************************
 Gaussian 16:  ES64L-G16RevA.03 25-Dec-2016
                24-Apr-2024 
 ******************************************
 %nprocshared=40
 Will use up to   40 processors via shared memory.
 %mem=15GB
 %chk=8water-v2.chk
 ---------------------------------------------------
 #p opt freq wb97xd/6-311+g(2d,2p) geom=connectivity
 ---------------------------------------------------
 1/18=20,19=15,26=3,38=1,57=2/1,3;
 2/9=110,12=2,17=6,18=5,40=1/2;
 3/5=4,6=6,7=212,11=2,25=1,30=1,71=1,74=-58/1,2,3;
 4//1;
 5/5=2,38=5/2;
 6/7=2,8=2,9=2,10=2,28=1/1;
 7//1,2,3,16;
 1/18=20,19=15,26=3/3(2);
 2/9=110/2;
 99//99;
 2/9=110/2;
 3/5=4,6=6,7=212,11=2,25=1,30=1,71=1,74=-58/1,2,3;
 4/5=5,16=3,69=1/1;
 5/5=2,38=5/2;
 7//1,2,3,16;
 1/18=20,19=15,26=3/3(-5);
 2/9=110/2;
 6/7=2,8=2,9=2,10=2,19=2,28=1/1;
 99/9=1/99;
 Leave Link    1 at Wed Apr 24 12:52:24 2024, MaxMem=  2013265920 cpu:               5.1 elap:               0.2
 (Enter /packages/apps/gaussian/g16/g16/l101.exe)
 --------
 Required
 --------
 Symbolic Z-matrix:
 Charge =  0 Multiplicity = 1
 C                    0    -4.80964  -4.44014   0.94149  L 
 C                    0    -5.34189  -3.35337   0.01511  L 
 H                    0    -5.30997  -5.3906    0.75591  L 
 H                    0    -3.73866  -4.5901    0.80294  L 
 H                    0    -4.97327  -4.17396   1.98775  L 
 C                    0    -4.73486  -1.96374   0.27402  L 
 H                    0    -5.16336  -3.63521  -1.02648  L 
 H                    0    -6.42594  -3.27822   0.12883  L 
 C                    0    -5.38381  -0.91766  -0.64919  L 
 H                    0    -4.98301  -1.69169   1.30536  L 
 H                    0    -4.9571   -0.99823  -1.65298  L 
 H                    0    -6.44174  -1.17224  -0.75375  L 
 C                    0    -5.31553   0.54072  -0.16798  L 
 C                    0    -6.16369   1.4405   -1.0817   L 
 H                    0    -5.76469   0.57376   0.83037  L 
 H                    0    -5.7488    1.41131  -2.09316  L 
 H                    0    -7.16771   1.01436  -1.14933  L 
 C                    0    -6.255     2.88536  -0.60596  L 
 H                    0    -6.89863   3.47266  -1.26086  L 
 H                    0    -6.66733   2.93847   0.40372  L 
 H                    0    -5.27249   3.35794  -0.58691  L 
 C                    0    -3.90174   1.06652  -0.04287  L 
 C                    0    -3.41622   1.55137   1.16613  L 
 C                    0    -3.0414    1.05582  -1.13597  L 
 C                    0    -2.10689   1.99211   1.2904   L 
 H                    0    -4.0633    1.55666   2.03493  L 
 C                    0    -1.73476   1.49187  -1.02079  L 
 H                    0    -3.37638   0.65968  -2.08592  L 
 C                    0    -1.25284   1.97694   0.19261  L 
 H                    0    -1.73713   2.33258   2.25055  L 
 H                    0    -1.07612   1.40142  -1.8743   L 
 C                    0    -3.22217  -2.00657   0.17596  L 
 C                    0    -2.43037  -1.68      1.26848  L 
 C                    0    -2.58135  -2.37641  -1.00483  L 
 C                    0    -1.04774  -1.72217   1.19376  L 
 H                    0    -2.90015  -1.35395   2.18739  L 
 C                    0    -1.20041  -2.43242  -1.08061  L 
 H                    0    -3.16545  -2.61059  -1.88626  L 
 C                    0    -0.41085  -2.13092   0.02652  L 
 H                    0    -0.4638   -1.40409   2.04739  L 
 H                    0    -0.72552  -2.69953  -2.01583  L 
 C                    0     1.08794  -2.12376  -0.06559  L 
 H                    0     1.40124  -1.94418  -1.0878   L 
 H                    0     1.49565  -1.31884   0.54037  L 
 C                    0     0.19369   2.35204   0.33458  L 
 H                    0     0.51118   2.21242   1.35976  L 
 H                    0     0.81283   1.71776  -0.29666  L 
 C                    0     3.30808  -3.02747   0.47076  L 
 H                    0     3.7821   -3.89567   0.92967  L 
 C                    0     4.0074   -2.65752  -0.81967  L 
 H                    0     3.3691   -2.19895   1.17039  L 
 C                    0     1.69679  -4.47831  -0.6923   L 
 C                    0     0.44897  -5.34315  -0.62145  L 
 H                    0     1.76783  -3.97718  -1.65639  L 
 H                    0     2.57537  -5.11201  -0.57435  L 
 C                    0     1.3766   -3.91115   1.68972  L 
 C                    0     1.71971  -3.04411   2.88595  L 
 H                    0     0.30146  -4.04507   1.61313  L 
 H                    0     1.83256  -4.89549   1.79596  L 
 C                    0     2.10074   3.87785   0.08459  L 
 H                    0     2.34702   4.87524  -0.28012  L 
 C                    0     2.71034   3.63625   1.45086  L 
 H                    0     2.49551   3.161    -0.62937  L 
 C                    0     0.16921   4.18435  -1.3885   L 
 C                    0     0.89741   3.47808  -2.51645  L 
 H                    0    -0.89966   4.00181  -1.45084  L 
 H                    0     0.33243   5.26005  -1.45127  L 
 C                    0    -0.00778   4.75915   1.00737  L 
 C                    0    -1.42164   5.25007   0.73932  L 
 H                    0     0.04705   4.2638    1.97445  L 
 H                    0     0.66847   5.61318   1.0243   L 
 N                    0     1.83414  -3.39057   0.3539   L 
 N                    0     0.58405   3.7888    0.0044   L 
 H                    0    -1.47925   5.91079  -0.12347  L 
 H                    0    -1.72882   5.82498   1.61268  L 
 H                    0    -2.13284   4.43961   0.61251  L 
 H                    0     0.38183   3.72728  -3.44373  L 
 H                    0     0.88672   2.39758  -2.40289  L 
 H                    0     1.93588   3.78907  -2.60371  L 
 H                    0     2.57013   2.61158   1.78456  L 
 H                    0     2.34896   4.32353   2.21308  L 
 H                    0     3.78387   3.78282   1.33872  L 
 H                    0     2.78134  -3.03549   3.11624  L 
 H                    0     1.18602  -3.44751   3.74639  L 
 H                    0     1.41085  -2.00965   2.76185  L 
 H                    0     4.07318  -3.48494  -1.5234   L 
 H                    0     5.01411  -2.34535  -0.54307  L 
 H                    0     3.5384   -1.81307  -1.31547  L 
 H                    0     0.44707  -5.97237  -1.51109  L 
 H                    0    -0.46893  -4.76349  -0.62531  L 
 H                    0     0.44424  -6.00169   0.24516  L 
 C                    0     3.05006   0.56637  -0.25959  L 
 O                    0     2.23358   0.57746  -1.26166  L 
 O                    0     2.59653   0.33577   0.9186   L 
 O                    0     4.28914   0.78458  -0.45583  L 
 O                    0     1.20486   0.41764   3.167    L 
 H                    0     1.54682   0.44405   2.24773  L 
 H                    0     1.99639   0.18647   3.66654  L 
 O                    0     3.54004  -0.14394  -3.44771  L 
 H                    0     4.47698  -0.15028  -3.24953  L 
 H                    0     3.12093   0.17853  -2.60754  L 
 O                    0     3.98543  -0.59747   3.01052  L 
 H                    0     4.91675  -0.64797   2.76747  L 
 H                    0     3.59498  -0.18985   2.20783  L 
 O                    0     0.05908   2.84799   3.76357  L 
 H                    0     0.48284   1.97582   3.63022  L 
 H                    0     0.20898   3.07113   4.68079  L 
 O                    0     6.05164  -0.58521   1.03271  L 
 H                    0     5.41055  -0.03768   0.515    L 
 H                    0     6.88825  -0.12968   0.95594  L 
 O                    0     1.83185  -2.50323  -3.41358  L 
 H                    0     1.10367  -1.86774  -3.39782  L 
 H                    0     2.59692  -1.91637  -3.51299  L 
 O                    0     0.35906  -0.06866  -3.07911  L 
 H                    0     0.87868   0.27609  -3.80832  L 
 H                    0     0.928     0.09559  -2.29906  L 
 O                    0     4.3213    2.8236   -2.30678  L 
 H                    0     4.00946   2.35392  -3.08185  L 
 H                    0     4.402     2.11104  -1.63902  L 
 
 Add virtual bond connecting atoms H101       and O93        Dist= 3.14D+00.
 Add virtual bond connecting atoms H109       and O95        Dist= 3.20D+00.
 Add virtual bond connecting atoms H97        and O94        Dist= 3.21D+00.
 Add virtual bond connecting atoms H104       and O94        Dist= 3.24D+00.
 Add virtual bond connecting atoms H116       and O93        Dist= 3.28D+00.
 Add virtual bond connecting atoms H106       and O96        Dist= 3.36D+00.
 Add virtual bond connecting atoms H119       and O95        Dist= 3.37D+00.
 Add virtual bond connecting atoms O99        and H113       Dist= 3.80D+00.
 Add virtual bond connecting atoms O114       and H112       Dist= 3.73D+00.
 Add virtual bond connecting atoms O93        and H47        Dist= 3.90D+00.
 Add virtual bond connecting atoms O94        and H44        Dist= 3.82D+00.
 ITRead=  0  0  0  0  0  0  0  0  0  0  0  0  0  0  0  0  0  0  0  0
 ITRead=  0  0  0  0  0  0  0  0  0  0  0  0  0  0  0  0  0  0  0  0
 ITRead=  0  0  0  0  0  0  0  0  0  0  0  0  0  0  0  0  0  0  0  0
 ITRead=  0  0  0  0  0  0  0  0  0  0  0  0  0  0  0  0  0  0  0  0
 ITRead=  0  0  0  0  0  0  0  0  0  0  0  0  0  0  0  0  0  0  0  0
 ITRead=  0  0  0  0  0  0  0  0  0  0  0  0  0  0  0  0  0  0  0
 MicOpt= -1 -1 -1 -1 -1 -1 -1 -1 -1 -1 -1 -1 -1 -1 -1 -1 -1 -1 -1 -1
 MicOpt= -1 -1 -1 -1 -1 -1 -1 -1 -1 -1 -1 -1 -1 -1 -1 -1 -1 -1 -1 -1
 MicOpt= -1 -1 -1 -1 -1 -1 -1 -1 -1 -1 -1 -1 -1 -1 -1 -1 -1 -1 -1 -1
 MicOpt= -1 -1 -1 -1 -1 -1 -1 -1 -1 -1 -1 -1 -1 -1 -1 -1 -1 -1 -1 -1
 MicOpt= -1 -1 -1 -1 -1 -1 -1 -1 -1 -1 -1 -1 -1 -1 -1 -1 -1 -1 -1 -1
 MicOpt= -1 -1 -1 -1 -1 -1 -1 -1 -1 -1 -1 -1 -1 -1 -1 -1 -1 -1 -1
 NAtoms=    119 NQM=      119 NQMF=       0 NMMI=      0 NMMIF=      0
                NMic=       0 NMicF=      0.
                    Isotopes and Nuclear Properties:
 (Nuclear quadrupole moments (NQMom) in fm**2, nuclear magnetic moments (NMagM)
  in nuclear magnetons)

  Atom         1           2           3           4           5           6           7           8           9          10
 IAtWgt=          12          12           1           1           1          12           1           1          12           1
 AtmWgt=  12.0000000  12.0000000   1.0078250   1.0078250   1.0078250  12.0000000   1.0078250   1.0078250  12.0000000   1.0078250
 NucSpn=           0           0           1           1           1           0           1           1           0           1
 AtZEff=  -0.0000000  -0.0000000  -0.0000000  -0.0000000  -0.0000000  -0.0000000  -0.0000000  -0.0000000  -0.0000000  -0.0000000
 NQMom=    0.0000000   0.0000000   0.0000000   0.0000000   0.0000000   0.0000000   0.0000000   0.0000000   0.0000000   0.0000000
 NMagM=    0.0000000   0.0000000   2.7928460   2.7928460   2.7928460   0.0000000   2.7928460   2.7928460   0.0000000   2.7928460
 AtZNuc=   6.0000000   6.0000000   1.0000000   1.0000000   1.0000000   6.0000000   1.0000000   1.0000000   6.0000000   1.0000000

  Atom        11          12          13          14          15          16          17          18          19          20
 IAtWgt=           1           1          12          12           1           1           1          12           1           1
 AtmWgt=   1.0078250   1.0078250  12.0000000  12.0000000   1.0078250   1.0078250   1.0078250  12.0000000   1.0078250   1.0078250
 NucSpn=           1           1           0           0           1           1           1           0           1           1
 AtZEff=  -0.0000000  -0.0000000  -0.0000000  -0.0000000  -0.0000000  -0.0000000  -0.0000000  -0.0000000  -0.0000000  -0.0000000
 NQMom=    0.0000000   0.0000000   0.0000000   0.0000000   0.0000000   0.0000000   0.0000000   0.0000000   0.0000000   0.0000000
 NMagM=    2.7928460   2.7928460   0.0000000   0.0000000   2.7928460   2.7928460   2.7928460   0.0000000   2.7928460   2.7928460
 AtZNuc=   1.0000000   1.0000000   6.0000000   6.0000000   1.0000000   1.0000000   1.0000000   6.0000000   1.0000000   1.0000000

  Atom        21          22          23          24          25          26          27          28          29          30
 IAtWgt=           1          12          12          12          12           1          12           1          12           1
 AtmWgt=   1.0078250  12.0000000  12.0000000  12.0000000  12.0000000   1.0078250  12.0000000   1.0078250  12.0000000   1.0078250
 NucSpn=           1           0           0           0           0           1           0           1           0           1
 AtZEff=  -0.0000000  -0.0000000  -0.0000000  -0.0000000  -0.0000000  -0.0000000  -0.0000000  -0.0000000  -0.0000000  -0.0000000
 NQMom=    0.0000000   0.0000000   0.0000000   0.0000000   0.0000000   0.0000000   0.0000000   0.0000000   0.0000000   0.0000000
 NMagM=    2.7928460   0.0000000   0.0000000   0.0000000   0.0000000   2.7928460   0.0000000   2.7928460   0.0000000   2.7928460
 AtZNuc=   1.0000000   6.0000000   6.0000000   6.0000000   6.0000000   1.0000000   6.0000000   1.0000000   6.0000000   1.0000000

  Atom        31          32          33          34          35          36          37          38          39          40
 IAtWgt=           1          12          12          12          12           1          12           1          12           1
 AtmWgt=   1.0078250  12.0000000  12.0000000  12.0000000  12.0000000   1.0078250  12.0000000   1.0078250  12.0000000   1.0078250
 NucSpn=           1           0           0           0           0           1           0           1           0           1
 AtZEff=  -0.0000000  -0.0000000  -0.0000000  -0.0000000  -0.0000000  -0.0000000  -0.0000000  -0.0000000  -0.0000000  -0.0000000
 NQMom=    0.0000000   0.0000000   0.0000000   0.0000000   0.0000000   0.0000000   0.0000000   0.0000000   0.0000000   0.0000000
 NMagM=    2.7928460   0.0000000   0.0000000   0.0000000   0.0000000   2.7928460   0.0000000   2.7928460   0.0000000   2.7928460
 AtZNuc=   1.0000000   6.0000000   6.0000000   6.0000000   6.0000000   1.0000000   6.0000000   1.0000000   6.0000000   1.0000000

  Atom        41          42          43          44          45          46          47          48          49          50
 IAtWgt=           1          12           1           1          12           1           1          12           1          12
 AtmWgt=   1.0078250  12.0000000   1.0078250   1.0078250  12.0000000   1.0078250   1.0078250  12.0000000   1.0078250  12.0000000
 NucSpn=           1           0           1           1           0           1           1           0           1           0
 AtZEff=  -0.0000000  -0.0000000  -0.0000000  -0.0000000  -0.0000000  -0.0000000  -0.0000000  -0.0000000  -0.0000000  -0.0000000
 NQMom=    0.0000000   0.0000000   0.0000000   0.0000000   0.0000000   0.0000000   0.0000000   0.0000000   0.0000000   0.0000000
 NMagM=    2.7928460   0.0000000   2.7928460   2.7928460   0.0000000   2.7928460   2.7928460   0.0000000   2.7928460   0.0000000
 AtZNuc=   1.0000000   6.0000000   1.0000000   1.0000000   6.0000000   1.0000000   1.0000000   6.0000000   1.0000000   6.0000000

  Atom        51          52          53          54          55          56          57          58          59          60
 IAtWgt=           1          12          12           1           1          12          12           1           1          12
 AtmWgt=   1.0078250  12.0000000  12.0000000   1.0078250   1.0078250  12.0000000  12.0000000   1.0078250   1.0078250  12.0000000
 NucSpn=           1           0           0           1           1           0           0           1           1           0
 AtZEff=  -0.0000000  -0.0000000  -0.0000000  -0.0000000  -0.0000000  -0.0000000  -0.0000000  -0.0000000  -0.0000000  -0.0000000
 NQMom=    0.0000000   0.0000000   0.0000000   0.0000000   0.0000000   0.0000000   0.0000000   0.0000000   0.0000000   0.0000000
 NMagM=    2.7928460   0.0000000   0.0000000   2.7928460   2.7928460   0.0000000   0.0000000   2.7928460   2.7928460   0.0000000
 AtZNuc=   1.0000000   6.0000000   6.0000000   1.0000000   1.0000000   6.0000000   6.0000000   1.0000000   1.0000000   6.0000000

  Atom        61          62          63          64          65          66          67          68          69          70
 IAtWgt=           1          12           1          12          12           1           1          12          12           1
 AtmWgt=   1.0078250  12.0000000   1.0078250  12.0000000  12.0000000   1.0078250   1.0078250  12.0000000  12.0000000   1.0078250
 NucSpn=           1           0           1           0           0           1           1           0           0           1
 AtZEff=  -0.0000000  -0.0000000  -0.0000000  -0.0000000  -0.0000000  -0.0000000  -0.0000000  -0.0000000  -0.0000000  -0.0000000
 NQMom=    0.0000000   0.0000000   0.0000000   0.0000000   0.0000000   0.0000000   0.0000000   0.0000000   0.0000000   0.0000000
 NMagM=    2.7928460   0.0000000   2.7928460   0.0000000   0.0000000   2.7928460   2.7928460   0.0000000   0.0000000   2.7928460
 AtZNuc=   1.0000000   6.0000000   1.0000000   6.0000000   6.0000000   1.0000000   1.0000000   6.0000000   6.0000000   1.0000000

  Atom        71          72          73          74          75          76          77          78          79          80
 IAtWgt=           1          14          14           1           1           1           1           1           1           1
 AtmWgt=   1.0078250  14.0030740  14.0030740   1.0078250   1.0078250   1.0078250   1.0078250   1.0078250   1.0078250   1.0078250
 NucSpn=           1           2           2           1           1           1           1           1           1           1
 AtZEff=  -0.0000000  -0.0000000  -0.0000000  -0.0000000  -0.0000000  -0.0000000  -0.0000000  -0.0000000  -0.0000000  -0.0000000
 NQMom=    0.0000000   2.0440000   2.0440000   0.0000000   0.0000000   0.0000000   0.0000000   0.0000000   0.0000000   0.0000000
 NMagM=    2.7928460   0.4037610   0.4037610   2.7928460   2.7928460   2.7928460   2.7928460   2.7928460   2.7928460   2.7928460
 AtZNuc=   1.0000000   7.0000000   7.0000000   1.0000000   1.0000000   1.0000000   1.0000000   1.0000000   1.0000000   1.0000000

  Atom        81          82          83          84          85          86          87          88          89          90
 IAtWgt=           1           1           1           1           1           1           1           1           1           1
 AtmWgt=   1.0078250   1.0078250   1.0078250   1.0078250   1.0078250   1.0078250   1.0078250   1.0078250   1.0078250   1.0078250
 NucSpn=           1           1           1           1           1           1           1           1           1           1
 AtZEff=  -0.0000000  -0.0000000  -0.0000000  -0.0000000  -0.0000000  -0.0000000  -0.0000000  -0.0000000  -0.0000000  -0.0000000
 NQMom=    0.0000000   0.0000000   0.0000000   0.0000000   0.0000000   0.0000000   0.0000000   0.0000000   0.0000000   0.0000000
 NMagM=    2.7928460   2.7928460   2.7928460   2.7928460   2.7928460   2.7928460   2.7928460   2.7928460   2.7928460   2.7928460
 AtZNuc=   1.0000000   1.0000000   1.0000000   1.0000000   1.0000000   1.0000000   1.0000000   1.0000000   1.0000000   1.0000000

  Atom        91          92          93          94          95          96          97          98          99         100
 IAtWgt=           1          12          16          16          16          16           1           1          16           1
 AtmWgt=   1.0078250  12.0000000  15.9949146  15.9949146  15.9949146  15.9949146   1.0078250   1.0078250  15.9949146   1.0078250
 NucSpn=           1           0           0           0           0           0           1           1           0           1
 AtZEff=  -0.0000000  -0.0000000  -0.0000000  -0.0000000  -0.0000000  -0.0000000  -0.0000000  -0.0000000  -0.0000000  -0.0000000
 NQMom=    0.0000000   0.0000000   0.0000000   0.0000000   0.0000000   0.0000000   0.0000000   0.0000000   0.0000000   0.0000000
 NMagM=    2.7928460   0.0000000   0.0000000   0.0000000   0.0000000   0.0000000   2.7928460   2.7928460   0.0000000   2.7928460
 AtZNuc=   1.0000000   6.0000000   8.0000000   8.0000000   8.0000000   8.0000000   1.0000000   1.0000000   8.0000000   1.0000000

  Atom       101         102         103         104         105         106         107         108         109         110
 IAtWgt=           1          16           1           1          16           1           1          16           1           1
 AtmWgt=   1.0078250  15.9949146   1.0078250   1.0078250  15.9949146   1.0078250   1.0078250  15.9949146   1.0078250   1.0078250
 NucSpn=           1           0           1           1           0           1           1           0           1           1
 AtZEff=  -0.0000000  -0.0000000  -0.0000000  -0.0000000  -0.0000000  -0.0000000  -0.0000000  -0.0000000  -0.0000000  -0.0000000
 NQMom=    0.0000000   0.0000000   0.0000000   0.0000000   0.0000000   0.0000000   0.0000000   0.0000000   0.0000000   0.0000000
 NMagM=    2.7928460   0.0000000   2.7928460   2.7928460   0.0000000   2.7928460   2.7928460   0.0000000   2.7928460   2.7928460
 AtZNuc=   1.0000000   8.0000000   1.0000000   1.0000000   8.0000000   1.0000000   1.0000000   8.0000000   1.0000000   1.0000000

  Atom       111         112         113         114         115         116         117         118         119
 IAtWgt=          16           1           1          16           1           1          16           1           1
 AtmWgt=  15.9949146   1.0078250   1.0078250  15.9949146   1.0078250   1.0078250  15.9949146   1.0078250   1.0078250
 NucSpn=           0           1           1           0           1           1           0           1           1
 AtZEff=  -0.0000000  -0.0000000  -0.0000000  -0.0000000  -0.0000000  -0.0000000  -0.0000000  -0.0000000  -0.0000000
 NQMom=    0.0000000   0.0000000   0.0000000   0.0000000   0.0000000   0.0000000   0.0000000   0.0000000   0.0000000
 NMagM=    0.0000000   2.7928460   2.7928460   0.0000000   2.7928460   2.7928460   0.0000000   2.7928460   2.7928460
 AtZNuc=   8.0000000   1.0000000   1.0000000   8.0000000   1.0000000   1.0000000   8.0000000   1.0000000   1.0000000
 Leave Link  101 at Wed Apr 24 12:52:24 2024, MaxMem=  2013265920 cpu:              10.3 elap:               0.4
 (Enter /packages/apps/gaussian/g16/g16/l103.exe)

 GradGradGradGradGradGradGradGradGradGradGradGradGradGradGradGradGradGrad
 Berny optimization.
 Initialization pass.
                           ----------------------------
                           !    Initial Parameters    !
                           ! (Angstroms and Degrees)  !
 --------------------------                            --------------------------
 ! Name  Definition              Value          Derivative Info.                !
 --------------------------------------------------------------------------------
 ! R1    R(1,2)                  1.524          estimate D2E/DX2                !
 ! R2    R(1,3)                  1.09           estimate D2E/DX2                !
 ! R3    R(1,4)                  1.0903         estimate D2E/DX2                !
 ! R4    R(1,5)                  1.0919         estimate D2E/DX2                !
 ! R5    R(2,6)                  1.5384         estimate D2E/DX2                !
 ! R6    R(2,7)                  1.0937         estimate D2E/DX2                !
 ! R7    R(2,8)                  1.0926         estimate D2E/DX2                !
 ! R8    R(6,9)                  1.5387         estimate D2E/DX2                !
 ! R9    R(6,10)                 1.0951         estimate D2E/DX2                !
 ! R10   R(6,32)                 1.5165         estimate D2E/DX2                !
 ! R11   R(9,11)                 1.0937         estimate D2E/DX2                !
 ! R12   R(9,12)                 1.0931         estimate D2E/DX2                !
 ! R13   R(9,13)                 1.5372         estimate D2E/DX2                !
 ! R14   R(13,14)                1.5375         estimate D2E/DX2                !
 ! R15   R(13,15)                1.0952         estimate D2E/DX2                !
 ! R16   R(13,22)                1.5136         estimate D2E/DX2                !
 ! R17   R(14,16)                1.0936         estimate D2E/DX2                !
 ! R18   R(14,17)                1.0928         estimate D2E/DX2                !
 ! R19   R(14,18)                1.5239         estimate D2E/DX2                !
 ! R20   R(18,19)                1.09           estimate D2E/DX2                !
 ! R21   R(18,20)                1.0919         estimate D2E/DX2                !
 ! R22   R(18,21)                1.0904         estimate D2E/DX2                !
 ! R23   R(22,23)                1.3901         estimate D2E/DX2                !
 ! R24   R(22,24)                1.3911         estimate D2E/DX2                !
 ! R25   R(23,25)                1.3871         estimate D2E/DX2                !
 ! R26   R(23,26)                1.0833         estimate D2E/DX2                !
 ! R27   R(24,27)                1.3823         estimate D2E/DX2                !
 ! R28   R(24,28)                1.0824         estimate D2E/DX2                !
 ! R29   R(25,29)                1.391          estimate D2E/DX2                !
 ! R30   R(25,30)                1.0838         estimate D2E/DX2                !
 ! R31   R(27,29)                1.3928         estimate D2E/DX2                !
 ! R32   R(27,31)                1.0819         estimate D2E/DX2                !
 ! R33   R(29,45)                1.5011         estimate D2E/DX2                !
 ! R34   R(32,33)                1.3882         estimate D2E/DX2                !
 ! R35   R(32,34)                1.3934         estimate D2E/DX2                !
 ! R36   R(33,35)                1.3853         estimate D2E/DX2                !
 ! R37   R(33,36)                1.0823         estimate D2E/DX2                !
 ! R38   R(34,37)                1.3842         estimate D2E/DX2                !
 ! R39   R(34,38)                1.083          estimate D2E/DX2                !
 ! R40   R(35,39)                1.3911         estimate D2E/DX2                !
 ! R41   R(35,40)                1.0821         estimate D2E/DX2                !
 ! R42   R(37,39)                1.3929         estimate D2E/DX2                !
 ! R43   R(37,41)                1.0824         estimate D2E/DX2                !
 ! R44   R(39,42)                1.5016         estimate D2E/DX2                !
 ! R45   R(42,43)                1.0841         estimate D2E/DX2                !
 ! R46   R(42,44)                1.0869         estimate D2E/DX2                !
 ! R47   R(42,72)                1.5289         estimate D2E/DX2                !
 ! R48   R(44,94)                2.023          estimate D2E/DX2                !
 ! R49   R(45,46)                1.0823         estimate D2E/DX2                !
 ! R50   R(45,47)                1.0882         estimate D2E/DX2                !
 ! R51   R(45,73)                1.525          estimate D2E/DX2                !
 ! R52   R(47,93)                2.0616         estimate D2E/DX2                !
 ! R53   R(48,49)                1.0904         estimate D2E/DX2                !
 ! R54   R(48,50)                1.5137         estimate D2E/DX2                !
 ! R55   R(48,51)                1.0861         estimate D2E/DX2                !
 ! R56   R(48,72)                1.5225         estimate D2E/DX2                !
 ! R57   R(50,86)                1.0882         estimate D2E/DX2                !
 ! R58   R(50,87)                1.0897         estimate D2E/DX2                !
 ! R59   R(50,88)                1.0858         estimate D2E/DX2                !
 ! R60   R(52,53)                1.5199         estimate D2E/DX2                !
 ! R61   R(52,54)                1.0889         estimate D2E/DX2                !
 ! R62   R(52,55)                1.0897         estimate D2E/DX2                !
 ! R63   R(52,72)                1.5154         estimate D2E/DX2                !
 ! R64   R(53,89)                1.0897         estimate D2E/DX2                !
 ! R65   R(53,90)                1.0856         estimate D2E/DX2                !
 ! R66   R(53,91)                1.0884         estimate D2E/DX2                !
 ! R67   R(56,57)                1.5167         estimate D2E/DX2                !
 ! R68   R(56,58)                1.0861         estimate D2E/DX2                !
 ! R69   R(56,59)                1.09           estimate D2E/DX2                !
 ! R70   R(56,72)                1.5049         estimate D2E/DX2                !
 ! R71   R(57,83)                1.0864         estimate D2E/DX2                !
 ! R72   R(57,84)                1.0899         estimate D2E/DX2                !
 ! R73   R(57,85)                1.0867         estimate D2E/DX2                !
 ! R74   R(60,61)                1.0902         estimate D2E/DX2                !
 ! R75   R(60,62)                1.5155         estimate D2E/DX2                !
 ! R76   R(60,63)                1.086          estimate D2E/DX2                !
 ! R77   R(60,73)                1.5214         estimate D2E/DX2                !
 ! R78   R(62,80)                1.0867         estimate D2E/DX2                !
 ! R79   R(62,81)                1.0881         estimate D2E/DX2                !
 ! R80   R(62,82)                1.0893         estimate D2E/DX2                !
 ! R81   R(64,65)                1.517          estimate D2E/DX2                !
 ! R82   R(64,66)                1.0861         estimate D2E/DX2                !
 ! R83   R(64,67)                1.0898         estimate D2E/DX2                !
 ! R84   R(64,73)                1.5062         estimate D2E/DX2                !
 ! R85   R(65,77)                1.0899         estimate D2E/DX2                !
 ! R86   R(65,78)                1.0865         estimate D2E/DX2                !
 ! R87   R(65,79)                1.0875         estimate D2E/DX2                !
 ! R88   R(68,69)                1.5205         estimate D2E/DX2                !
 ! R89   R(68,70)                1.0879         estimate D2E/DX2                !
 ! R90   R(68,71)                1.0895         estimate D2E/DX2                !
 ! R91   R(68,73)                1.5158         estimate D2E/DX2                !
 ! R92   R(69,74)                1.0882         estimate D2E/DX2                !
 ! R93   R(69,75)                1.0898         estimate D2E/DX2                !
 ! R94   R(69,76)                1.0857         estimate D2E/DX2                !
 ! R95   R(92,93)                1.2926         estimate D2E/DX2                !
 ! R96   R(92,94)                1.2834         estimate D2E/DX2                !
 ! R97   R(92,95)                1.2734         estimate D2E/DX2                !
 ! R98   R(93,101)               1.6607         estimate D2E/DX2                !
 ! R99   R(93,116)               1.7358         estimate D2E/DX2                !
 ! R100  R(94,97)                1.6971         estimate D2E/DX2                !
 ! R101  R(94,104)               1.7133         estimate D2E/DX2                !
 ! R102  R(95,109)               1.6959         estimate D2E/DX2                !
 ! R103  R(95,119)               1.7811         estimate D2E/DX2                !
 ! R104  R(96,97)                0.9812         estimate D2E/DX2                !
 ! R105  R(96,98)                0.9641         estimate D2E/DX2                !
 ! R106  R(96,106)               1.7787         estimate D2E/DX2                !
 ! R107  R(99,100)               0.9577         estimate D2E/DX2                !
 ! R108  R(99,101)               0.9927         estimate D2E/DX2                !
 ! R109  R(99,113)               2.0088         estimate D2E/DX2                !
 ! R110  R(102,103)              0.9638         estimate D2E/DX2                !
 ! R111  R(102,104)              0.9813         estimate D2E/DX2                !
 ! R112  R(105,106)              0.9788         estimate D2E/DX2                !
 ! R113  R(105,107)              0.9558         estimate D2E/DX2                !
 ! R114  R(108,109)              0.9893         estimate D2E/DX2                !
 ! R115  R(108,110)              0.9557         estimate D2E/DX2                !
 ! R116  R(111,112)              0.9666         estimate D2E/DX2                !
 ! R117  R(111,113)              0.9693         estimate D2E/DX2                !
 ! R118  R(112,114)              1.973          estimate D2E/DX2                !
 ! R119  R(114,115)              0.9595         estimate D2E/DX2                !
 ! R120  R(114,116)              0.9794         estimate D2E/DX2                !
 ! R121  R(117,118)              0.9584         estimate D2E/DX2                !
 ! R122  R(117,119)              0.9799         estimate D2E/DX2                !
 ! A1    A(2,1,3)              110.9779         estimate D2E/DX2                !
 ! A2    A(2,1,4)              111.3401         estimate D2E/DX2                !
 ! A3    A(2,1,5)              110.8721         estimate D2E/DX2                !
 ! A4    A(3,1,4)              108.0178         estimate D2E/DX2                !
 ! A5    A(3,1,5)              107.8732         estimate D2E/DX2                !
 ! A6    A(4,1,5)              107.6078         estimate D2E/DX2                !
 ! A7    A(1,2,6)              113.8316         estimate D2E/DX2                !
 ! A8    A(1,2,7)              109.7627         estimate D2E/DX2                !
 ! A9    A(1,2,8)              109.4079         estimate D2E/DX2                !
 ! A10   A(6,2,7)              109.1866         estimate D2E/DX2                !
 ! A11   A(6,2,8)              108.1712         estimate D2E/DX2                !
 ! A12   A(7,2,8)              106.189          estimate D2E/DX2                !
 ! A13   A(2,6,9)              110.286          estimate D2E/DX2                !
 ! A14   A(2,6,10)             107.0671         estimate D2E/DX2                !
 ! A15   A(2,6,32)             110.9289         estimate D2E/DX2                !
 ! A16   A(9,6,10)             107.4935         estimate D2E/DX2                !
 ! A17   A(9,6,32)             113.6468         estimate D2E/DX2                !
 ! A18   A(10,6,32)            107.0939         estimate D2E/DX2                !
 ! A19   A(6,9,11)             109.6351         estimate D2E/DX2                !
 ! A20   A(6,9,12)             107.8918         estimate D2E/DX2                !
 ! A21   A(6,9,13)             116.0021         estimate D2E/DX2                !
 ! A22   A(11,9,12)            105.8221         estimate D2E/DX2                !
 ! A23   A(11,9,13)            109.8686         estimate D2E/DX2                !
 ! A24   A(12,9,13)            107.0895         estimate D2E/DX2                !
 ! A25   A(9,13,14)            110.1612         estimate D2E/DX2                !
 ! A26   A(9,13,15)            107.2024         estimate D2E/DX2                !
 ! A27   A(9,13,22)            113.3865         estimate D2E/DX2                !
 ! A28   A(14,13,15)           107.3279         estimate D2E/DX2                !
 ! A29   A(14,13,22)           111.1679         estimate D2E/DX2                !
 ! A30   A(15,13,22)           107.2922         estimate D2E/DX2                !
 ! A31   A(13,14,16)           108.95           estimate D2E/DX2                !
 ! A32   A(13,14,17)           108.3854         estimate D2E/DX2                !
 ! A33   A(13,14,18)           113.7277         estimate D2E/DX2                !
 ! A34   A(16,14,17)           106.3143         estimate D2E/DX2                !
 ! A35   A(16,14,18)           109.6802         estimate D2E/DX2                !
 ! A36   A(17,14,18)           109.5109         estimate D2E/DX2                !
 ! A37   A(14,18,19)           111.0184         estimate D2E/DX2                !
 ! A38   A(14,18,20)           110.9416         estimate D2E/DX2                !
 ! A39   A(14,18,21)           111.2462         estimate D2E/DX2                !
 ! A40   A(19,18,20)           107.8416         estimate D2E/DX2                !
 ! A41   A(19,18,21)           108.0014         estimate D2E/DX2                !
 ! A42   A(20,18,21)           107.639          estimate D2E/DX2                !
 ! A43   A(13,22,23)           121.2841         estimate D2E/DX2                !
 ! A44   A(13,22,24)           120.6682         estimate D2E/DX2                !
 ! A45   A(23,22,24)           118.0385         estimate D2E/DX2                !
 ! A46   A(22,23,25)           121.2265         estimate D2E/DX2                !
 ! A47   A(22,23,26)           119.3778         estimate D2E/DX2                !
 ! A48   A(25,23,26)           119.3685         estimate D2E/DX2                !
 ! A49   A(22,24,27)           121.1121         estimate D2E/DX2                !
 ! A50   A(22,24,28)           120.0696         estimate D2E/DX2                !
 ! A51   A(27,24,28)           118.7592         estimate D2E/DX2                !
 ! A52   A(23,25,29)           120.3579         estimate D2E/DX2                !
 ! A53   A(23,25,30)           120.0829         estimate D2E/DX2                !
 ! A54   A(29,25,30)           119.5482         estimate D2E/DX2                !
 ! A55   A(24,27,29)           120.6324         estimate D2E/DX2                !
 ! A56   A(24,27,31)           118.9056         estimate D2E/DX2                !
 ! A57   A(29,27,31)           120.3823         estimate D2E/DX2                !
 ! A58   A(25,29,27)           118.6152         estimate D2E/DX2                !
 ! A59   A(25,29,45)           120.9517         estimate D2E/DX2                !
 ! A60   A(27,29,45)           120.1885         estimate D2E/DX2                !
 ! A61   A(6,32,33)            120.758          estimate D2E/DX2                !
 ! A62   A(6,32,34)            121.4005         estimate D2E/DX2                !
 ! A63   A(33,32,34)           117.8413         estimate D2E/DX2                !
 ! A64   A(32,33,35)           121.3094         estimate D2E/DX2                !
 ! A65   A(32,33,36)           119.4372         estimate D2E/DX2                !
 ! A66   A(35,33,36)           119.2214         estimate D2E/DX2                !
 ! A67   A(32,34,37)           121.0605         estimate D2E/DX2                !
 ! A68   A(32,34,38)           119.9359         estimate D2E/DX2                !
 ! A69   A(37,34,38)           118.9969         estimate D2E/DX2                !
 ! A70   A(33,35,39)           120.7408         estimate D2E/DX2                !
 ! A71   A(33,35,40)           119.1514         estimate D2E/DX2                !
 ! A72   A(39,35,40)           120.0829         estimate D2E/DX2                !
 ! A73   A(34,37,39)           120.882          estimate D2E/DX2                !
 ! A74   A(34,37,41)           119.6717         estimate D2E/DX2                !
 ! A75   A(39,37,41)           119.44           estimate D2E/DX2                !
 ! A76   A(35,39,37)           118.1011         estimate D2E/DX2                !
 ! A77   A(35,39,42)           120.4662         estimate D2E/DX2                !
 ! A78   A(37,39,42)           121.2027         estimate D2E/DX2                !
 ! A79   A(39,42,43)           110.3083         estimate D2E/DX2                !
 ! A80   A(39,42,44)           110.1049         estimate D2E/DX2                !
 ! A81   A(39,42,72)           117.7976         estimate D2E/DX2                !
 ! A82   A(43,42,44)           107.1342         estimate D2E/DX2                !
 ! A83   A(43,42,72)           104.7676         estimate D2E/DX2                !
 ! A84   A(44,42,72)           106.1154         estimate D2E/DX2                !
 ! A85   A(42,44,94)           156.0729         estimate D2E/DX2                !
 ! A86   A(29,45,46)           109.8797         estimate D2E/DX2                !
 ! A87   A(29,45,47)           110.3519         estimate D2E/DX2                !
 ! A88   A(29,45,73)           117.4911         estimate D2E/DX2                !
 ! A89   A(46,45,47)           107.9019         estimate D2E/DX2                !
 ! A90   A(46,45,73)           104.568          estimate D2E/DX2                !
 ! A91   A(47,45,73)           106.1358         estimate D2E/DX2                !
 ! A92   A(49,48,50)           110.6425         estimate D2E/DX2                !
 ! A93   A(49,48,51)           108.1703         estimate D2E/DX2                !
 ! A94   A(49,48,72)           105.2638         estimate D2E/DX2                !
 ! A95   A(50,48,51)           109.6801         estimate D2E/DX2                !
 ! A96   A(50,48,72)           116.1119         estimate D2E/DX2                !
 ! A97   A(51,48,72)           106.6046         estimate D2E/DX2                !
 ! A98   A(48,50,86)           113.1672         estimate D2E/DX2                !
 ! A99   A(48,50,87)           106.2864         estimate D2E/DX2                !
 ! A100  A(48,50,88)           112.322          estimate D2E/DX2                !
 ! A101  A(86,50,87)           109.0345         estimate D2E/DX2                !
 ! A102  A(86,50,88)           108.7947         estimate D2E/DX2                !
 ! A103  A(87,50,88)           106.9876         estimate D2E/DX2                !
 ! A104  A(53,52,54)           110.8984         estimate D2E/DX2                !
 ! A105  A(53,52,55)           109.026          estimate D2E/DX2                !
 ! A106  A(53,52,72)           116.7859         estimate D2E/DX2                !
 ! A107  A(54,52,55)           108.1123         estimate D2E/DX2                !
 ! A108  A(54,52,72)           105.961          estimate D2E/DX2                !
 ! A109  A(55,52,72)           105.6419         estimate D2E/DX2                !
 ! A110  A(52,53,89)           106.9746         estimate D2E/DX2                !
 ! A111  A(52,53,90)           112.9652         estimate D2E/DX2                !
 ! A112  A(52,53,91)           112.6407         estimate D2E/DX2                !
 ! A113  A(89,53,90)           107.6946         estimate D2E/DX2                !
 ! A114  A(89,53,91)           107.4977         estimate D2E/DX2                !
 ! A115  A(90,53,91)           108.7968         estimate D2E/DX2                !
 ! A116  A(57,56,58)           110.489          estimate D2E/DX2                !
 ! A117  A(57,56,59)           110.1656         estimate D2E/DX2                !
 ! A118  A(57,56,72)           115.6929         estimate D2E/DX2                !
 ! A119  A(58,56,59)           108.0347         estimate D2E/DX2                !
 ! A120  A(58,56,72)           106.3206         estimate D2E/DX2                !
 ! A121  A(59,56,72)           105.7669         estimate D2E/DX2                !
 ! A122  A(56,57,83)           113.1288         estimate D2E/DX2                !
 ! A123  A(56,57,84)           107.4746         estimate D2E/DX2                !
 ! A124  A(56,57,85)           112.9427         estimate D2E/DX2                !
 ! A125  A(83,57,84)           108.3066         estimate D2E/DX2                !
 ! A126  A(83,57,85)           107.1225         estimate D2E/DX2                !
 ! A127  A(84,57,85)           107.6565         estimate D2E/DX2                !
 ! A128  A(61,60,62)           110.8909         estimate D2E/DX2                !
 ! A129  A(61,60,63)           107.5684         estimate D2E/DX2                !
 ! A130  A(61,60,73)           105.1367         estimate D2E/DX2                !
 ! A131  A(62,60,63)           109.9526         estimate D2E/DX2                !
 ! A132  A(62,60,73)           116.052          estimate D2E/DX2                !
 ! A133  A(63,60,73)           106.8028         estimate D2E/DX2                !
 ! A134  A(60,62,80)           112.0401         estimate D2E/DX2                !
 ! A135  A(60,62,81)           113.4066         estimate D2E/DX2                !
 ! A136  A(60,62,82)           106.3897         estimate D2E/DX2                !
 ! A137  A(80,62,81)           109.7323         estimate D2E/DX2                !
 ! A138  A(80,62,82)           106.5969         estimate D2E/DX2                !
 ! A139  A(81,62,82)           108.3274         estimate D2E/DX2                !
 ! A140  A(65,64,66)           110.5771         estimate D2E/DX2                !
 ! A141  A(65,64,67)           110.1705         estimate D2E/DX2                !
 ! A142  A(65,64,73)           115.665          estimate D2E/DX2                !
 ! A143  A(66,64,67)           108.0581         estimate D2E/DX2                !
 ! A144  A(66,64,73)           106.2591         estimate D2E/DX2                !
 ! A145  A(67,64,73)           105.7369         estimate D2E/DX2                !
 ! A146  A(64,65,77)           107.402          estimate D2E/DX2                !
 ! A147  A(64,65,78)           112.3685         estimate D2E/DX2                !
 ! A148  A(64,65,79)           112.6368         estimate D2E/DX2                !
 ! A149  A(77,65,78)           108.1595         estimate D2E/DX2                !
 ! A150  A(77,65,79)           108.546          estimate D2E/DX2                !
 ! A151  A(78,65,79)           107.5877         estimate D2E/DX2                !
 ! A152  A(69,68,70)           110.5224         estimate D2E/DX2                !
 ! A153  A(69,68,71)           109.0764         estimate D2E/DX2                !
 ! A154  A(69,68,73)           116.9422         estimate D2E/DX2                !
 ! A155  A(70,68,71)           108.1682         estimate D2E/DX2                !
 ! A156  A(70,68,73)           106.0824         estimate D2E/DX2                !
 ! A157  A(71,68,73)           105.6486         estimate D2E/DX2                !
 ! A158  A(68,69,74)           112.6455         estimate D2E/DX2                !
 ! A159  A(68,69,75)           106.9268         estimate D2E/DX2                !
 ! A160  A(68,69,76)           112.8733         estimate D2E/DX2                !
 ! A161  A(74,69,75)           107.4669         estimate D2E/DX2                !
 ! A162  A(74,69,76)           109.0234         estimate D2E/DX2                !
 ! A163  A(75,69,76)           107.624          estimate D2E/DX2                !
 ! A164  A(42,72,48)           107.2143         estimate D2E/DX2                !
 ! A165  A(42,72,52)           111.1665         estimate D2E/DX2                !
 ! A166  A(42,72,56)           112.4434         estimate D2E/DX2                !
 ! A167  A(48,72,52)           108.1749         estimate D2E/DX2                !
 ! A168  A(48,72,56)           107.9809         estimate D2E/DX2                !
 ! A169  A(52,72,56)           109.6903         estimate D2E/DX2                !
 ! A170  A(45,73,60)           107.392          estimate D2E/DX2                !
 ! A171  A(45,73,64)           112.156          estimate D2E/DX2                !
 ! A172  A(45,73,68)           111.0939         estimate D2E/DX2                !
 ! A173  A(60,73,64)           107.9351         estimate D2E/DX2                !
 ! A174  A(60,73,68)           108.474          estimate D2E/DX2                !
 ! A175  A(64,73,68)           109.6475         estimate D2E/DX2                !
 ! A176  A(93,92,94)           119.3412         estimate D2E/DX2                !
 ! A177  A(93,92,95)           119.5839         estimate D2E/DX2                !
 ! A178  A(94,92,95)           121.0749         estimate D2E/DX2                !
 ! A179  A(47,93,92)            94.4264         estimate D2E/DX2                !
 ! A180  A(47,93,101)          151.6978         estimate D2E/DX2                !
 ! A181  A(47,93,116)           85.1211         estimate D2E/DX2                !
 ! A182  A(92,93,101)          106.78           estimate D2E/DX2                !
 ! A183  A(92,93,116)          159.3935         estimate D2E/DX2                !
 ! A184  A(101,93,116)          81.4223         estimate D2E/DX2                !
 ! A185  A(44,94,92)            99.6502         estimate D2E/DX2                !
 ! A186  A(44,94,97)            82.069          estimate D2E/DX2                !
 ! A187  A(44,94,104)          101.9405         estimate D2E/DX2                !
 ! A188  A(92,94,97)           157.8371         estimate D2E/DX2                !
 ! A189  A(92,94,104)          122.684          estimate D2E/DX2                !
 ! A190  A(97,94,104)           77.9188         estimate D2E/DX2                !
 ! A191  A(92,95,109)          118.1728         estimate D2E/DX2                !
 ! A192  A(92,95,119)          106.9579         estimate D2E/DX2                !
 ! A193  A(109,95,119)         134.3847         estimate D2E/DX2                !
 ! A194  A(97,96,98)           101.8745         estimate D2E/DX2                !
 ! A195  A(97,96,106)          111.2165         estimate D2E/DX2                !
 ! A196  A(98,96,106)          114.1028         estimate D2E/DX2                !
 ! A197  A(94,97,96)           161.3727         estimate D2E/DX2                !
 ! A198  A(100,99,101)         103.8895         estimate D2E/DX2                !
 ! A199  A(100,99,113)         117.4005         estimate D2E/DX2                !
 ! A200  A(101,99,113)          96.6551         estimate D2E/DX2                !
 ! A201  A(103,102,104)        101.5344         estimate D2E/DX2                !
 ! A202  A(106,105,107)        105.7159         estimate D2E/DX2                !
 ! A203  A(109,108,110)        105.155          estimate D2E/DX2                !
 ! A204  A(112,111,113)        101.4336         estimate D2E/DX2                !
 ! A205  A(111,112,114)        152.4276         estimate D2E/DX2                !
 ! A206  A(99,113,111)         154.3446         estimate D2E/DX2                !
 ! A207  A(112,114,115)         90.0271         estimate D2E/DX2                !
 ! A208  A(112,114,116)         93.574          estimate D2E/DX2                !
 ! A209  A(115,114,116)        103.3246         estimate D2E/DX2                !
 ! A210  A(93,116,114)         163.6443         estimate D2E/DX2                !
 ! A211  A(118,117,119)        102.7991         estimate D2E/DX2                !
 ! A212  L(45,47,93,1,-1)      184.9136         estimate D2E/DX2                !
 ! A213  L(93,101,99,41,-1)    171.8438         estimate D2E/DX2                !
 ! A214  L(94,104,102,48,-1)   175.7091         estimate D2E/DX2                !
 ! A215  L(96,106,105,2,-1)    176.3021         estimate D2E/DX2                !
 ! A216  L(95,109,108,3,-1)    177.4695         estimate D2E/DX2                !
 ! A217  L(95,119,117,9,-1)    171.5293         estimate D2E/DX2                !
 ! A218  L(45,47,93,1,-2)      188.2504         estimate D2E/DX2                !
 ! A219  L(93,101,99,41,-2)    178.298          estimate D2E/DX2                !
 ! A220  L(94,104,102,48,-2)   192.268          estimate D2E/DX2                !
 ! A221  L(96,106,105,2,-2)    186.7507         estimate D2E/DX2                !
 ! A222  L(95,109,108,3,-2)    175.5392         estimate D2E/DX2                !
 ! A223  L(95,119,117,9,-2)    180.2968         estimate D2E/DX2                !
 ! D1    D(3,1,2,6)            176.8043         estimate D2E/DX2                !
 ! D2    D(3,1,2,7)            -60.4802         estimate D2E/DX2                !
 ! D3    D(3,1,2,8)             55.6674         estimate D2E/DX2                !
 ! D4    D(4,1,2,6)            -62.8341         estimate D2E/DX2                !
 ! D5    D(4,1,2,7)             59.8813         estimate D2E/DX2                !
 ! D6    D(4,1,2,8)            176.0289         estimate D2E/DX2                !
 ! D7    D(5,1,2,6)             56.9377         estimate D2E/DX2                !
 ! D8    D(5,1,2,7)            179.6531         estimate D2E/DX2                !
 ! D9    D(5,1,2,8)            -64.1993         estimate D2E/DX2                !
 ! D10   D(1,2,6,9)           -176.847          estimate D2E/DX2                !
 ! D11   D(1,2,6,10)           -60.1854         estimate D2E/DX2                !
 ! D12   D(1,2,6,32)            56.3412         estimate D2E/DX2                !
 ! D13   D(7,2,6,9)             60.1223         estimate D2E/DX2                !
 ! D14   D(7,2,6,10)           176.7839         estimate D2E/DX2                !
 ! D15   D(7,2,6,32)           -66.6895         estimate D2E/DX2                !
 ! D16   D(8,2,6,9)            -55.0229         estimate D2E/DX2                !
 ! D17   D(8,2,6,10)            61.6387         estimate D2E/DX2                !
 ! D18   D(8,2,6,32)           178.1653         estimate D2E/DX2                !
 ! D19   D(2,6,9,11)           -78.0075         estimate D2E/DX2                !
 ! D20   D(2,6,9,12)            36.7876         estimate D2E/DX2                !
 ! D21   D(2,6,9,13)           156.857          estimate D2E/DX2                !
 ! D22   D(10,6,9,11)          165.5967         estimate D2E/DX2                !
 ! D23   D(10,6,9,12)          -79.6083         estimate D2E/DX2                !
 ! D24   D(10,6,9,13)           40.4611         estimate D2E/DX2                !
 ! D25   D(32,6,9,11)           47.2735         estimate D2E/DX2                !
 ! D26   D(32,6,9,12)          162.0685         estimate D2E/DX2                !
 ! D27   D(32,6,9,13)          -77.8621         estimate D2E/DX2                !
 ! D28   D(2,6,32,33)         -118.8527         estimate D2E/DX2                !
 ! D29   D(2,6,32,34)           60.9579         estimate D2E/DX2                !
 ! D30   D(9,6,32,33)          116.2101         estimate D2E/DX2                !
 ! D31   D(9,6,32,34)          -63.9792         estimate D2E/DX2                !
 ! D32   D(10,6,32,33)          -2.3427         estimate D2E/DX2                !
 ! D33   D(10,6,32,34)         177.4679         estimate D2E/DX2                !
 ! D34   D(6,9,13,14)         -172.2344         estimate D2E/DX2                !
 ! D35   D(6,9,13,15)          -55.7592         estimate D2E/DX2                !
 ! D36   D(6,9,13,22)           62.4637         estimate D2E/DX2                !
 ! D37   D(11,9,13,14)          62.7495         estimate D2E/DX2                !
 ! D38   D(11,9,13,15)         179.2247         estimate D2E/DX2                !
 ! D39   D(11,9,13,22)         -62.5525         estimate D2E/DX2                !
 ! D40   D(12,9,13,14)         -51.7321         estimate D2E/DX2                !
 ! D41   D(12,9,13,15)          64.7431         estimate D2E/DX2                !
 ! D42   D(12,9,13,22)        -177.034          estimate D2E/DX2                !
 ! D43   D(9,13,14,16)         -62.5036         estimate D2E/DX2                !
 ! D44   D(9,13,14,17)          52.78           estimate D2E/DX2                !
 ! D45   D(9,13,14,18)         174.822          estimate D2E/DX2                !
 ! D46   D(15,13,14,16)       -178.9003         estimate D2E/DX2                !
 ! D47   D(15,13,14,17)        -63.6168         estimate D2E/DX2                !
 ! D48   D(15,13,14,18)         58.4253         estimate D2E/DX2                !
 ! D49   D(22,13,14,16)         64.0526         estimate D2E/DX2                !
 ! D50   D(22,13,14,17)        179.3362         estimate D2E/DX2                !
 ! D51   D(22,13,14,18)        -58.6218         estimate D2E/DX2                !
 ! D52   D(9,13,22,23)        -121.73           estimate D2E/DX2                !
 ! D53   D(9,13,22,24)          57.1479         estimate D2E/DX2                !
 ! D54   D(14,13,22,23)        113.5097         estimate D2E/DX2                !
 ! D55   D(14,13,22,24)        -67.6124         estimate D2E/DX2                !
 ! D56   D(15,13,22,23)         -3.5591         estimate D2E/DX2                !
 ! D57   D(15,13,22,24)        175.3188         estimate D2E/DX2                !
 ! D58   D(13,14,18,19)       -177.6229         estimate D2E/DX2                !
 ! D59   D(13,14,18,20)        -57.7232         estimate D2E/DX2                !
 ! D60   D(13,14,18,21)         62.0722         estimate D2E/DX2                !
 ! D61   D(16,14,18,19)         60.1048         estimate D2E/DX2                !
 ! D62   D(16,14,18,20)       -179.9955         estimate D2E/DX2                !
 ! D63   D(16,14,18,21)        -60.2001         estimate D2E/DX2                !
 ! D64   D(17,14,18,19)        -56.2058         estimate D2E/DX2                !
 ! D65   D(17,14,18,20)         63.6939         estimate D2E/DX2                !
 ! D66   D(17,14,18,21)       -176.5107         estimate D2E/DX2                !
 ! D67   D(13,22,23,25)        177.8556         estimate D2E/DX2                !
 ! D68   D(13,22,23,26)         -0.2382         estimate D2E/DX2                !
 ! D69   D(24,22,23,25)         -1.0509         estimate D2E/DX2                !
 ! D70   D(24,22,23,26)       -179.1447         estimate D2E/DX2                !
 ! D71   D(13,22,24,27)       -177.7999         estimate D2E/DX2                !
 ! D72   D(13,22,24,28)         -0.6301         estimate D2E/DX2                !
 ! D73   D(23,22,24,27)          1.1136         estimate D2E/DX2                !
 ! D74   D(23,22,24,28)        178.2834         estimate D2E/DX2                !
 ! D75   D(22,23,25,29)          1.0217         estimate D2E/DX2                !
 ! D76   D(22,23,25,30)       -177.7613         estimate D2E/DX2                !
 ! D77   D(26,23,25,29)        179.1157         estimate D2E/DX2                !
 ! D78   D(26,23,25,30)          0.3327         estimate D2E/DX2                !
 ! D79   D(22,24,27,29)         -1.1501         estimate D2E/DX2                !
 ! D80   D(22,24,27,31)        175.6178         estimate D2E/DX2                !
 ! D81   D(28,24,27,29)       -178.3563         estimate D2E/DX2                !
 ! D82   D(28,24,27,31)         -1.5883         estimate D2E/DX2                !
 ! D83   D(23,25,29,27)         -1.0029         estimate D2E/DX2                !
 ! D84   D(23,25,29,45)       -175.3313         estimate D2E/DX2                !
 ! D85   D(30,25,29,27)        177.7865         estimate D2E/DX2                !
 ! D86   D(30,25,29,45)          3.4582         estimate D2E/DX2                !
 ! D87   D(24,27,29,25)          1.0692         estimate D2E/DX2                !
 ! D88   D(24,27,29,45)        175.4422         estimate D2E/DX2                !
 ! D89   D(31,27,29,25)       -175.6509         estimate D2E/DX2                !
 ! D90   D(31,27,29,45)         -1.278          estimate D2E/DX2                !
 ! D91   D(25,29,45,46)         23.2561         estimate D2E/DX2                !
 ! D92   D(25,29,45,47)        142.1219         estimate D2E/DX2                !
 ! D93   D(25,29,45,73)        -96.0632         estimate D2E/DX2                !
 ! D94   D(27,29,45,46)       -150.9835         estimate D2E/DX2                !
 ! D95   D(27,29,45,47)        -32.1177         estimate D2E/DX2                !
 ! D96   D(27,29,45,73)         89.6972         estimate D2E/DX2                !
 ! D97   D(6,32,33,35)         179.65           estimate D2E/DX2                !
 ! D98   D(6,32,33,36)          -2.424          estimate D2E/DX2                !
 ! D99   D(34,32,33,35)         -0.1672         estimate D2E/DX2                !
 ! D100  D(34,32,33,36)        177.7588         estimate D2E/DX2                !
 ! D101  D(6,32,34,37)        -179.0235         estimate D2E/DX2                !
 ! D102  D(6,32,34,38)           1.9297         estimate D2E/DX2                !
 ! D103  D(33,32,34,37)          0.7925         estimate D2E/DX2                !
 ! D104  D(33,32,34,38)       -178.2543         estimate D2E/DX2                !
 ! D105  D(32,33,35,39)         -1.8037         estimate D2E/DX2                !
 ! D106  D(32,33,35,40)        176.3807         estimate D2E/DX2                !
 ! D107  D(36,33,35,39)       -179.7341         estimate D2E/DX2                !
 ! D108  D(36,33,35,40)         -1.5497         estimate D2E/DX2                !
 ! D109  D(32,34,37,39)          0.5403         estimate D2E/DX2                !
 ! D110  D(32,34,37,41)       -178.5397         estimate D2E/DX2                !
 ! D111  D(38,34,37,39)        179.5959         estimate D2E/DX2                !
 ! D112  D(38,34,37,41)          0.516          estimate D2E/DX2                !
 ! D113  D(33,35,39,37)          3.0703         estimate D2E/DX2                !
 ! D114  D(33,35,39,42)        177.6263         estimate D2E/DX2                !
 ! D115  D(40,35,39,37)       -175.0972         estimate D2E/DX2                !
 ! D116  D(40,35,39,42)         -0.5412         estimate D2E/DX2                !
 ! D117  D(34,37,39,35)         -2.4514         estimate D2E/DX2                !
 ! D118  D(34,37,39,42)       -176.9654         estimate D2E/DX2                !
 ! D119  D(41,37,39,35)        176.6307         estimate D2E/DX2                !
 ! D120  D(41,37,39,42)          2.1167         estimate D2E/DX2                !
 ! D121  D(35,39,42,43)       -149.8262         estimate D2E/DX2                !
 ! D122  D(35,39,42,44)        -31.7928         estimate D2E/DX2                !
 ! D123  D(35,39,42,72)         90.0182         estimate D2E/DX2                !
 ! D124  D(37,39,42,43)         24.5588         estimate D2E/DX2                !
 ! D125  D(37,39,42,44)        142.5923         estimate D2E/DX2                !
 ! D126  D(37,39,42,72)        -95.5967         estimate D2E/DX2                !
 ! D127  D(39,42,44,94)       -125.5382         estimate D2E/DX2                !
 ! D128  D(43,42,44,94)         -5.5642         estimate D2E/DX2                !
 ! D129  D(72,42,44,94)        105.9494         estimate D2E/DX2                !
 ! D130  D(39,42,72,48)       -167.4195         estimate D2E/DX2                !
 ! D131  D(39,42,72,52)         74.5374         estimate D2E/DX2                !
 ! D132  D(39,42,72,56)        -48.8884         estimate D2E/DX2                !
 ! D133  D(43,42,72,48)         69.5749         estimate D2E/DX2                !
 ! D134  D(43,42,72,52)        -48.4682         estimate D2E/DX2                !
 ! D135  D(43,42,72,56)       -171.8939         estimate D2E/DX2                !
 ! D136  D(44,42,72,48)        -43.5851         estimate D2E/DX2                !
 ! D137  D(44,42,72,52)       -161.6282         estimate D2E/DX2                !
 ! D138  D(44,42,72,56)         74.9461         estimate D2E/DX2                !
 ! D139  D(42,44,94,92)          2.5823         estimate D2E/DX2                !
 ! D140  D(42,44,94,97)        160.2192         estimate D2E/DX2                !
 ! D141  D(42,44,94,104)      -123.9894         estimate D2E/DX2                !
 ! D142  D(29,45,93,92)       -138.2156         estimate D2E/DX2                !
 ! D143  D(29,45,93,101)        88.1943         estimate D2E/DX2                !
 ! D144  D(29,45,93,116)        21.1753         estimate D2E/DX2                !
 ! D145  D(46,45,93,92)        -18.4918         estimate D2E/DX2                !
 ! D146  D(46,45,93,101)      -152.0818         estimate D2E/DX2                !
 ! D147  D(46,45,93,116)       140.8991         estimate D2E/DX2                !
 ! D148  D(73,45,93,92)         90.5238         estimate D2E/DX2                !
 ! D149  D(73,45,93,101)       -43.0663         estimate D2E/DX2                !
 ! D150  D(73,45,93,116)      -110.0853         estimate D2E/DX2                !
 ! D151  D(29,45,73,60)       -174.2615         estimate D2E/DX2                !
 ! D152  D(29,45,73,64)        -55.8394         estimate D2E/DX2                !
 ! D153  D(29,45,73,68)         67.2664         estimate D2E/DX2                !
 ! D154  D(46,45,73,60)         63.6451         estimate D2E/DX2                !
 ! D155  D(46,45,73,64)       -177.9327         estimate D2E/DX2                !
 ! D156  D(46,45,73,68)        -54.827          estimate D2E/DX2                !
 ! D157  D(47,45,73,60)        -50.2968         estimate D2E/DX2                !
 ! D158  D(47,45,73,64)         68.1254         estimate D2E/DX2                !
 ! D159  D(47,45,73,68)       -168.7689         estimate D2E/DX2                !
 ! D160  D(49,48,50,86)         54.6143         estimate D2E/DX2                !
 ! D161  D(49,48,50,87)        -65.0289         estimate D2E/DX2                !
 ! D162  D(49,48,50,88)        178.292          estimate D2E/DX2                !
 ! D163  D(51,48,50,86)        173.866          estimate D2E/DX2                !
 ! D164  D(51,48,50,87)         54.2228         estimate D2E/DX2                !
 ! D165  D(51,48,50,88)        -62.4563         estimate D2E/DX2                !
 ! D166  D(72,48,50,86)        -65.2503         estimate D2E/DX2                !
 ! D167  D(72,48,50,87)        175.1065         estimate D2E/DX2                !
 ! D168  D(72,48,50,88)         58.4274         estimate D2E/DX2                !
 ! D169  D(49,48,72,42)        170.7065         estimate D2E/DX2                !
 ! D170  D(49,48,72,52)        -69.3215         estimate D2E/DX2                !
 ! D171  D(49,48,72,56)         49.3238         estimate D2E/DX2                !
 ! D172  D(50,48,72,42)        -66.5609         estimate D2E/DX2                !
 ! D173  D(50,48,72,52)         53.4111         estimate D2E/DX2                !
 ! D174  D(50,48,72,56)        172.0565         estimate D2E/DX2                !
 ! D175  D(51,48,72,42)         55.9548         estimate D2E/DX2                !
 ! D176  D(51,48,72,52)        175.9268         estimate D2E/DX2                !
 ! D177  D(51,48,72,56)        -65.4278         estimate D2E/DX2                !
 ! D178  D(54,52,53,89)         51.096          estimate D2E/DX2                !
 ! D179  D(54,52,53,90)        -67.2304         estimate D2E/DX2                !
 ! D180  D(54,52,53,91)        168.9958         estimate D2E/DX2                !
 ! D181  D(55,52,53,89)        -67.8294         estimate D2E/DX2                !
 ! D182  D(55,52,53,90)        173.8442         estimate D2E/DX2                !
 ! D183  D(55,52,53,91)         50.0704         estimate D2E/DX2                !
 ! D184  D(72,52,53,89)        172.5953         estimate D2E/DX2                !
 ! D185  D(72,52,53,90)         54.2689         estimate D2E/DX2                !
 ! D186  D(72,52,53,91)        -69.5049         estimate D2E/DX2                !
 ! D187  D(53,52,72,42)        -84.5435         estimate D2E/DX2                !
 ! D188  D(53,52,72,48)        157.9959         estimate D2E/DX2                !
 ! D189  D(53,52,72,56)         40.4426         estimate D2E/DX2                !
 ! D190  D(54,52,72,42)         39.5121         estimate D2E/DX2                !
 ! D191  D(54,52,72,48)        -77.9485         estimate D2E/DX2                !
 ! D192  D(54,52,72,56)        164.4982         estimate D2E/DX2                !
 ! D193  D(55,52,72,42)        154.0857         estimate D2E/DX2                !
 ! D194  D(55,52,72,48)         36.6251         estimate D2E/DX2                !
 ! D195  D(55,52,72,56)        -80.9282         estimate D2E/DX2                !
 ! D196  D(58,56,57,83)        169.0512         estimate D2E/DX2                !
 ! D197  D(58,56,57,84)         49.5432         estimate D2E/DX2                !
 ! D198  D(58,56,57,85)        -69.048          estimate D2E/DX2                !
 ! D199  D(59,56,57,83)         49.7559         estimate D2E/DX2                !
 ! D200  D(59,56,57,84)        -69.7521         estimate D2E/DX2                !
 ! D201  D(59,56,57,85)        171.6567         estimate D2E/DX2                !
 ! D202  D(72,56,57,83)        -70.1063         estimate D2E/DX2                !
 ! D203  D(72,56,57,84)        170.3857         estimate D2E/DX2                !
 ! D204  D(72,56,57,85)         51.7945         estimate D2E/DX2                !
 ! D205  D(57,56,72,42)        -67.9727         estimate D2E/DX2                !
 ! D206  D(57,56,72,48)         50.107          estimate D2E/DX2                !
 ! D207  D(57,56,72,52)        167.7813         estimate D2E/DX2                !
 ! D208  D(58,56,72,42)         55.0942         estimate D2E/DX2                !
 ! D209  D(58,56,72,48)        173.1738         estimate D2E/DX2                !
 ! D210  D(58,56,72,52)        -69.1519         estimate D2E/DX2                !
 ! D211  D(59,56,72,42)        169.7948         estimate D2E/DX2                !
 ! D212  D(59,56,72,48)        -72.1255         estimate D2E/DX2                !
 ! D213  D(59,56,72,52)         45.5488         estimate D2E/DX2                !
 ! D214  D(61,60,62,80)       -173.6801         estimate D2E/DX2                !
 ! D215  D(61,60,62,81)         61.4195         estimate D2E/DX2                !
 ! D216  D(61,60,62,82)        -57.5584         estimate D2E/DX2                !
 ! D217  D(63,60,62,80)        -54.8459         estimate D2E/DX2                !
 ! D218  D(63,60,62,81)       -179.7462         estimate D2E/DX2                !
 ! D219  D(63,60,62,82)         61.2759         estimate D2E/DX2                !
 ! D220  D(73,60,62,80)         66.4723         estimate D2E/DX2                !
 ! D221  D(73,60,62,81)        -58.428          estimate D2E/DX2                !
 ! D222  D(73,60,62,82)       -177.4059         estimate D2E/DX2                !
 ! D223  D(61,60,73,45)        172.9248         estimate D2E/DX2                !
 ! D224  D(61,60,73,64)         51.8093         estimate D2E/DX2                !
 ! D225  D(61,60,73,68)        -66.9245         estimate D2E/DX2                !
 ! D226  D(62,60,73,45)        -64.1583         estimate D2E/DX2                !
 ! D227  D(62,60,73,64)        174.7263         estimate D2E/DX2                !
 ! D228  D(62,60,73,68)         55.9924         estimate D2E/DX2                !
 ! D229  D(63,60,73,45)         58.8251         estimate D2E/DX2                !
 ! D230  D(63,60,73,64)        -62.2903         estimate D2E/DX2                !
 ! D231  D(63,60,73,68)        178.9758         estimate D2E/DX2                !
 ! D232  D(66,64,65,77)         49.4253         estimate D2E/DX2                !
 ! D233  D(66,64,65,78)        -69.4018         estimate D2E/DX2                !
 ! D234  D(66,64,65,79)        168.8871         estimate D2E/DX2                !
 ! D235  D(67,64,65,77)        -69.9578         estimate D2E/DX2                !
 ! D236  D(67,64,65,78)        171.2151         estimate D2E/DX2                !
 ! D237  D(67,64,65,79)         49.504          estimate D2E/DX2                !
 ! D238  D(73,64,65,77)        170.2351         estimate D2E/DX2                !
 ! D239  D(73,64,65,78)         51.408          estimate D2E/DX2                !
 ! D240  D(73,64,65,79)        -70.3031         estimate D2E/DX2                !
 ! D241  D(65,64,73,45)        -67.6001         estimate D2E/DX2                !
 ! D242  D(65,64,73,60)         50.5004         estimate D2E/DX2                !
 ! D243  D(65,64,73,68)        168.4831         estimate D2E/DX2                !
 ! D244  D(66,64,73,45)         55.5151         estimate D2E/DX2                !
 ! D245  D(66,64,73,60)        173.6156         estimate D2E/DX2                !
 ! D246  D(66,64,73,68)        -68.4018         estimate D2E/DX2                !
 ! D247  D(67,64,73,45)        170.2014         estimate D2E/DX2                !
 ! D248  D(67,64,73,60)        -71.6982         estimate D2E/DX2                !
 ! D249  D(67,64,73,68)         46.2845         estimate D2E/DX2                !
 ! D250  D(70,68,69,74)        169.1465         estimate D2E/DX2                !
 ! D251  D(70,68,69,75)         51.3118         estimate D2E/DX2                !
 ! D252  D(70,68,69,76)        -66.8444         estimate D2E/DX2                !
 ! D253  D(71,68,69,74)         50.3478         estimate D2E/DX2                !
 ! D254  D(71,68,69,75)        -67.4869         estimate D2E/DX2                !
 ! D255  D(71,68,69,76)        174.3569         estimate D2E/DX2                !
 ! D256  D(73,68,69,74)        -69.383          estimate D2E/DX2                !
 ! D257  D(73,68,69,75)        172.7824         estimate D2E/DX2                !
 ! D258  D(73,68,69,76)         54.6261         estimate D2E/DX2                !
 ! D259  D(69,68,73,45)        -85.9506         estimate D2E/DX2                !
 ! D260  D(69,68,73,60)        156.2319         estimate D2E/DX2                !
 ! D261  D(69,68,73,64)         38.5852         estimate D2E/DX2                !
 ! D262  D(70,68,73,45)         37.8155         estimate D2E/DX2                !
 ! D263  D(70,68,73,60)        -80.0019         estimate D2E/DX2                !
 ! D264  D(70,68,73,64)        162.3514         estimate D2E/DX2                !
 ! D265  D(71,68,73,45)        152.5086         estimate D2E/DX2                !
 ! D266  D(71,68,73,60)         34.6911         estimate D2E/DX2                !
 ! D267  D(71,68,73,64)        -82.9556         estimate D2E/DX2                !
 ! D268  D(94,92,93,47)         45.2647         estimate D2E/DX2                !
 ! D269  D(94,92,93,101)      -153.7017         estimate D2E/DX2                !
 ! D270  D(94,92,93,116)       -42.6433         estimate D2E/DX2                !
 ! D271  D(95,92,93,47)       -134.6986         estimate D2E/DX2                !
 ! D272  D(95,92,93,101)        26.3349         estimate D2E/DX2                !
 ! D273  D(95,92,93,116)       137.3934         estimate D2E/DX2                !
 ! D274  D(93,92,94,44)         49.0028         estimate D2E/DX2                !
 ! D275  D(93,92,94,97)        -43.6582         estimate D2E/DX2                !
 ! D276  D(93,92,94,104)       160.0074         estimate D2E/DX2                !
 ! D277  D(95,92,94,44)       -131.0344         estimate D2E/DX2                !
 ! D278  D(95,92,94,97)        136.3046         estimate D2E/DX2                !
 ! D279  D(95,92,94,104)       -20.0298         estimate D2E/DX2                !
 ! D280  D(93,92,95,109)      -145.5953         estimate D2E/DX2                !
 ! D281  D(93,92,95,119)        41.2548         estimate D2E/DX2                !
 ! D282  D(94,92,95,109)        34.4421         estimate D2E/DX2                !
 ! D283  D(94,92,95,119)      -138.7078         estimate D2E/DX2                !
 ! D284  D(47,93,99,100)       132.1677         estimate D2E/DX2                !
 ! D285  D(47,93,99,113)      -108.0464         estimate D2E/DX2                !
 ! D286  D(92,93,99,100)       -11.1065         estimate D2E/DX2                !
 ! D287  D(92,93,99,113)       108.6793         estimate D2E/DX2                !
 ! D288  D(116,93,99,100)     -171.2368         estimate D2E/DX2                !
 ! D289  D(116,93,99,113)      -51.451          estimate D2E/DX2                !
 ! D290  D(47,93,116,114)      121.5576         estimate D2E/DX2                !
 ! D291  D(92,93,116,114)     -148.8394         estimate D2E/DX2                !
 ! D292  D(101,93,116,114)     -33.4728         estimate D2E/DX2                !
 ! D293  D(44,94,97,96)        107.3327         estimate D2E/DX2                !
 ! D294  D(92,94,97,96)       -156.5452         estimate D2E/DX2                !
 ! D295  D(104,94,97,96)         3.2428         estimate D2E/DX2                !
 ! D296  D(44,94,102,103)      114.5766         estimate D2E/DX2                !
 ! D297  D(92,94,102,103)        6.0062         estimate D2E/DX2                !
 ! D298  D(97,94,102,103)     -166.0903         estimate D2E/DX2                !
 ! D299  D(92,95,108,110)     -163.3868         estimate D2E/DX2                !
 ! D300  D(119,95,108,110)      10.0389         estimate D2E/DX2                !
 ! D301  D(92,95,117,118)      -70.5041         estimate D2E/DX2                !
 ! D302  D(109,95,117,118)     117.7532         estimate D2E/DX2                !
 ! D303  D(98,96,97,94)          2.3878         estimate D2E/DX2                !
 ! D304  D(106,96,97,94)       124.3442         estimate D2E/DX2                !
[...]
 ,0.00004601,0.00004521,0.00005888,0.00010556,-0.00001518,0.00002189,0.
 00005441,0.00000496,0.00000207,-0.00000508,-0.00000902,0.00011736,-0.0
 0008271,-0.00007133,0.00000803,0.00002221,-0.00000111,-0.00000113,-0.0
 0001485,0.00000084,0.00000308,0.00000766,-0.00002815,0.00000434,0.0000
 3276,-0.00001932,0.00000805,0.00002827,0.00003982,-0.00000006,-0.00000
 233,-0.00000874,-0.00000221,-0.00000332,0.00001589,0.00000228,-0.00000
 499,-0.00000229,0.00001106,0.00000217,-0.00001188,-0.00000588,0.000000
 29,0.00000043,-0.00000402,0.00000187,0.00000088,0.00000320,-0.00000774
 ,0.00000307,0.00014736,-0.00000531,0.00001648,-0.00002317,0.00000868,0
 .00000817,-0.00007901,0.00003928,0.00004818,0.00007264,-0.00022358,-0.
 00049486,-0.00009514,-0.00001128,-0.00009012,-0.00009308,0.00017227,-0
 .00011388,-0.00003059,0.00002150,0.00004730,0.00000212,0.00001820,0.00
 002745,0.00001934,-0.00004451,-0.00005357,-0.00000286,0.00000705,0.000
 02317,0.00000024,0.00000674,-0.00000324,0.00000173,-0.00000316,0.00000
 176,-0.00002831,-0.00004800,-0.00000909,-0.00004780,0.00000441,0.00001
 285,0.00000094,-0.00000314,-0.00000666,-0.00000882,0.00000474,0.000006
 96,-0.00000089,-0.00000119,-0.00000465,-0.00028526,0.00007957,-0.00002
 407,0.00027156,0.00005310,0.00006168,0.00034719,-0.00049724,0.00032197
 ,0.00001646,-0.00002535,-0.00001861,0.00000801,0.00001551,0.00003960,0
 .00000521,-0.00000171,-0.00000042,0.00000158,0.00001133,-0.00000557,-0
 .00000524,-0.00000593,0.00000383,0.00001249,0.00000805,-0.00000477,0.0
 0000140,-0.00004171,0.00000287,-0.00000698,0.00002609,0.00000817,-0.00
 000275,0.00005304,0.00006483,-0.00000325,-0.00000702,-0.00000350,0.000
 00034,0.00000459,0.00000309,0.00000010,0.00000120,0.00000265,0.0000040
 5,0.00056793,-0.00191705,-0.00054289,-0.00150015,0.00076238,-0.0003548
 1,-0.00018581,0.00101360,0.00045874,0.00019783,0.00126296,-0.00008477,
 -0.00001493,0.00015806,0.00012558,0.00001310,-0.00020689,0.00000820,0.
 00001117,-0.00003211,0.00013085,-0.00041133,-0.00215423,-0.00016939,0.
 00030384,0.00081123,0.00025344,0.00201000,0.00094701,0.00005449,-0.000
 09578,0.00015002,-0.00000765,0.00002132,-0.00003574,-0.00009309,0.0001
 0307,-0.00019139,-0.00004199,0.00002694,0.00004083,0.00003443,-0.00003
 640,-0.00003091,0.00000960,-0.00000627,-0.00001088,0.00023878,-0.00019
 047,0.00015031,-0.00034972,0.00026010,-0.00022492,-0.00003404,0.000011
 18,-0.00000984,0.00004180,-0.00001728,-0.00014314,-0.00002481,0.000040
 59,0.00007235,-0.00003485,-0.00002196,0.00005770,-0.00014999,-0.000113
 30,-0.00035289,-0.00007790,-0.00003896,0.00018249,0.00036108,0.0001899
 1,0.00037711,-0.13444348,-0.16941117,-0.36005107,0.14738221,0.19056052
 ,0.38978281,-0.00000067,0.00000376,0.00000225,-0.00000196,-0.00000869,
 -0.00000310,0.00000433,0.00000725,0.00000038,0.00000047,-0.00000592,-0
 .00000014,-0.00000145,-0.00000243,-0.00000120,-0.00000811,-0.00000360,
 0.00000950,-0.00000275,0.00000077,0.00000053,0.00000643,0.00000218,-0.
 00000098,0.00001402,-0.00000608,-0.00000441,0.00000080,-0.00000216,-0.
 00000104,-0.00000614,-0.00000155,-0.00000274,0.00001194,0.00000756,0.0
 0000201,-0.00001791,-0.00000706,0.00001048,0.00000414,0.00001317,-0.00
 000581,0.00000655,0.00000142,-0.00000475,-0.00000516,-0.00000204,-0.00
 000276,0.00001407,-0.00000005,0.00000327,-0.00000715,-0.00000249,0.000
 00338,0.00000656,-0.00000375,0.00000528,-0.00000110,0.00000127,-0.0000
 0374,0.00000136,0.00000860,-0.00000310,-0.00000884,-0.00000538,-0.0000
 0650,0.00002218,0.00001628,0.00000741,0.00001980,-0.00000217,-0.000021
 09,0.00002678,0.00001602,0.00003214,0.00001238,0.00000299,-0.00000742,
 0.00001170,-0.00000029,0.00000007,0.00000268,0.00000524,0.00000815,-0.
 00002213,-0.00002387,-0.00003822,-0.00000489,-0.00000346,0.00000918,-0
 .00002421,0.00000326,-0.00001543,-0.00000633,0.00000111,-0.00000055,0.
 00000461,0.00000762,0.00000108,0.00000334,0.00000365,-0.00001052,0.000
 00027,0.00001234,0.00001335,0.00000185,-0.00000804,0.00000233,-0.00000
 309,0.00000520,-0.00001436,0.00000257,-0.00000518,0.00000424,-0.000012
 94,0.00003298,-0.00001170,-0.00000077,-0.00001191,0.00000742,-0.000002
 76,-0.00001503,-0.00000036,0.00002335,-0.00005009,0.00004737,-0.000020
 47,-0.00007413,-0.00003555,-0.00004823,-0.00008270,0.00004456,-0.00005
 314,-0.00011687,0.00004969,0.00000184,-0.00000851,0.00001384,-0.000190
 66,0.00007638,0.00010523,0.00004475,0.00001154,-0.00002161,0.00000019,
 0.00002209,-0.00000535,0.00000731,-0.00001951,0.00005649,0.00001459,-0
 .00002349,0.00002303,-0.00000927,-0.00001784,-0.00002653,-0.00000047,0
 .00000162,0.00000372,0.00000810,-0.00001484,0.00000385,-0.00000471,0.0
 0001547,-0.00000175,-0.00002550,0.00000515,0.00001941,0.00000995,-0.00
 000668,0.00000002,-0.00000089,-0.00000965,0.00000142,-0.00000186,0.000
 01248,-0.00000789,-0.00013710,0.00046672,0.00055595,0.00011790,-0.0001
 8514,-0.00011449,0.00024523,-0.00011609,0.00001391,-0.00169063,0.00109
 650,0.00092065,-0.00019497,0.00000396,-0.00014483,-0.00012909,0.000180
 76,0.00018257,0.00000506,0.00001016,0.00006346,0.00001060,-0.00001643,
 -0.00002206,0.00009805,0.00010479,0.00016035,0.00000708,-0.00002376,-0
 .00007908,0.00000368,-0.00001660,0.00001226,-0.00000311,0.00001584,0.0
 0000648,-0.00001100,0.00005437,-0.00001446,0.00017311,-0.00026891,-0.0
 0032659,0.00000071,0.00000059,0.00001296,0.00003392,-0.00001558,-0.000
 00264,0.00000678,0.00000225,0.00000852,0.00006726,-0.00006107,0.000014
 70,-0.00022498,-0.00004352,-0.00008012,0.00019218,0.00007486,-0.000308
 15,-0.00002346,0.00002115,0.00002321,-0.00005614,-0.00001924,-0.000147
 33,0.00004215,-0.00002572,0.00000214,-0.00000247,0.00000283,0.00000103
 ,0.00000216,0.00000214,-0.00000359,-0.00000192,-0.00000394,0.00000629,
 -0.00000187,0.00003040,-0.00000139,0.00001243,0.00003536,-0.00002256,0
 .00004805,-0.00004146,-0.00003030,0.00000182,0.00000213,0.00000434,-0.
 00000387,-0.00000874,0.00000072,-0.00000029,0.00000208,-0.00000532,0.0
 0175363,-0.00499970,0.00769323,-0.00082313,0.00200145,-0.00171599,-0.0
 0105965,-0.00004483,-0.00067586,-0.01016399,0.00304095,-0.00346898,0.0
 0000677,0.00006728,-0.00011124,-0.00006836,-0.00005883,0.00012091,0.00
 003848,-0.00002229,0.00003438,-0.00066099,0.00058063,0.00064645,0.0005
 0198,0.00040934,0.00018412,0.00023660,-0.00174018,-0.00117910,-0.00025
 406,0.00006929,-0.00012607,0.00012960,0.00002226,-0.00006932,0.0002007
 8,-0.00011246,0.00023404,0.00002091,0.00000627,-0.00007430,-0.00000694
 ,-0.00001240,0.00003753,-0.00000167,0.00000734,0.00001205,-0.00081481,
 0.00005499,0.00002157,0.00133679,-0.00020993,0.00025603,-0.00014531,0.
 00020623,-0.00028871,-0.00004887,0.00011270,0.00006076,0.00003009,-0.0
 0009920,-0.00004757,0.00001341,-0.00006487,-0.00004213,0.00020659,0.00
 015241,0.00028061,-0.00000304,-0.00002892,-0.00010016,-0.00043493,-0.0
 0019115,-0.00039202,-0.02121764,0.01073409,-0.02711040,-0.00032704,0.0
 1083203,-0.01309613,0.03317215,-0.00001869,-0.00000117,0.00000633,0.00
 002563,-0.00002367,-0.00000432,0.00000924,0.00000727,0.00000377,0.0000
 1190,-0.00001556,-0.00000150,-0.00000346,-0.00000395,-0.00000146,-0.00
 004096,0.00001701,0.00002685,-0.00001258,-0.00000059,-0.00000121,0.000
 03004,0.00001111,-0.00000229,0.00001028,0.00003720,-0.00001622,0.00001
 192,-0.00000039,-0.00001023,-0.00000934,0.00000240,-0.00000510,0.00002
 298,-0.00001566,0.00000467,0.00000152,0.00002069,0.00000509,-0.0000145
 1,-0.00000336,-0.00001229,-0.00000345,-0.00000254,0.00000019,0.0000001
 6,0.00000262,0.00000284,-0.00000349,-0.00000260,-0.00000138,0.00001679
 ,-0.00000180,0.00000865,0.00001096,-0.00001027,0.00000423,-0.00000341,
 -0.00000081,-0.00000075,-0.00001071,0.00000308,-0.00000611,-0.00000162
 ,0.00000001,0.00000434,-0.00001094,-0.00002126,-0.00000038,0.00000615,
 -0.00002717,0.00002525,0.00002406,-0.00002872,-0.00000748,-0.00000858,
 0.00001620,-0.00000032,0.00000661,-0.00007758,0.00001645,-0.00000941,0
 .00002184,-0.00001335,0.00000452,-0.00021521,0.00002301,-0.00001132,0.
 00003375,-0.00001362,-0.00003367,0.00012075,0.00000094,-0.00002441,-0.
 00000361,-0.00000316,0.00004608,0.00000959,0.00005191,0.00005806,-0.00
 002893,-0.00001788,0.00001128,-0.00000487,0.00001208,0.00001805,0.0000
 0448,-0.00002652,0.00004497,-0.00003473,-0.00005071,0.00002128,0.00001
 407,0.00001836,-0.00009620,0.00009224,0.00000472,-0.00004363,0.0000020
 8,0.00002969,-0.00002259,0.00000007,-0.00001949,-0.00005271,0.00018738
 ,0.00005837,-0.00006398,-0.00012044,-0.00009751,-0.00030367,-0.0004942
 5,-0.00002118,0.00025380,0.00046865,-0.00024399,-0.00008457,0.00006306
 ,0.00007579,-0.00049714,0.00053637,0.00014934,-0.00025294,-0.00014159,
 0.00004948,0.00004180,0.00010020,-0.00002731,0.00010873,0.00004877,0.0
 0009421,-0.00001825,-0.00016967,0.00011094,-0.00002727,-0.00009729,-0.
 00012584,-0.00000997,0.00000501,0.00002606,-0.00002400,-0.00000139,-0.
 00002911,-0.00000165,-0.00000689,0.00001540,-0.00003652,-0.00005156,0.
 00011207,0.00002759,0.00000433,-0.00002429,0.00002554,0.00001854,-0.00
 002150,-0.00000816,0.00001593,-0.00000933,0.00031496,-0.00050347,-0.00
 034697,0.00012722,-0.00027060,-0.00006642,-0.00002515,0.00022698,-0.00
 004463,0.00176022,0.00056426,-0.00107148,-0.00016717,-0.00022468,-0.00
 023270,0.00014734,0.00038205,0.00009494,-0.00009854,0.00009687,0.00009
 658,0.00005490,-0.00004582,0.00002831,-0.00014430,-0.00019459,-0.00011
 723,-0.00001432,0.00004247,0.00008865,-0.00000385,0.00008516,-0.000014
 67,0.00000830,-0.00008677,-0.00003389,0.00022652,0.00016804,0.00003106
 ,-0.00033579,0.00009725,0.00053599,0.00001108,-0.00003485,0.00000739,-
 0.00003367,0.00002217,0.00000873,-0.00002432,0.00002842,-0.00002298,-0
 .00013778,-0.00003708,-0.00000716,0.00002775,0.00021811,-0.00010077,0.
 00049997,-0.00058590,0.00008112,-0.00013018,0.00022687,0.00027836,-0.0
 0001498,-0.00012129,0.00020168,-0.00011298,0.00003158,-0.00031365,0.00
 000243,-0.00005755,0.00004033,0.00002843,0.00003739,-0.00002693,-0.000
 07452,-0.00002392,0.00003857,0.00000890,0.00019999,-0.00000995,0.00010
 820,-0.00021734,-0.00001727,-0.00018208,-0.00021913,-0.00021625,0.0000
 1330,0.00001767,0.00001323,0.00001088,-0.00000037,-0.00001011,0.000010
 68,0.00000270,-0.00001738,-0.02306964,-0.00301315,0.00149434,0.0068094
 8,-0.00058200,0.00521600,0.00705730,0.00094570,-0.00630055,0.00971053,
 0.00688266,-0.00852953,0.00059026,-0.00035372,-0.00105026,-0.00086223,
 0.00017625,0.00149278,-0.00009240,0.00006620,0.00015197,0.00000026,-0.
 00085663,0.00225327,0.00024070,-0.00011858,-0.00145037,-0.00081409,-0.
 00072109,-0.00250328,-0.00013000,0.00024228,-0.00092579,-0.00001709,-0
 .00004945,0.00033014,0.00036721,-0.00037599,0.00123419,0.00008929,-0.0
 0041078,0.00001607,-0.00021012,0.00048749,0.00011193,0.00000523,0.0000
 5199,0.00000515,-0.00212706,0.00119423,-0.00143748,0.00358264,-0.00192
 493,0.00212102,0.00011534,0.00017979,0.00000841,0.00016270,0.00007429,
 0.00029636,-0.00010151,0.00002135,-0.00010941,-0.00007641,-0.00009816,
 -0.00018645,0.00066077,-0.00031876,0.00080637,-0.00002546,0.00030310,-
 0.00010823,-0.00107473,-0.00003718,-0.00116435,0.02443579,-0.26024398,
 0.21603724,-0.00444919,0.01472108,-0.02205445,-0.02172511,0.24367612,0
 .00001140,-0.00000084,-0.00000495,-0.00001624,0.00001942,0.00000795,-0
 .00000869,-0.00000908,-0.00000211,-0.00000736,0.00001312,0.00000298,0.
 00000427,0.00000287,-0.00000087,0.00002790,-0.00000944,-0.00002408,0.0
 0000906,-0.00000065,-0.00000248,-0.00002168,-0.00000808,0.00000174,-0.
 00001982,-0.00001697,0.00001781,-0.00000524,0.00000103,0.00000330,0.00
 001039,-0.00000099,0.00000188,-0.00002158,0.00000368,-0.00000440,0.000
 01218,-0.00000858,-0.00001605,0.00000150,-0.00000773,0.00001857,0.0000
 0069,0.00000122,-0.00000098,0.00000454,-0.00000161,-0.00000447,-0.0000
 0762,0.00000206,-0.00000214,-0.00000593,0.00000314,-0.00000798,-0.0000
 1315,0.00000918,-0.00000553,0.00000533,0.00000031,-0.00000055,0.000005
 84,-0.00000769,0.00000935,0.00000456,0.00000386,0.00000267,-0.00000109
 ,-0.00000148,-0.00002300,-0.00001898,0.00000898,-0.00003117,-0.0000433
 1,0.00000650,-0.00002046,-0.00000108,-0.00001132,0.00000382,-0.0000566
 0,0.00006362,0.00004575,-0.00001131,-0.00002263,0.00000232,0.00003415,
 0.00016323,-0.00001339,0.00003055,-0.00001836,0.00000404,0.00000462,-0
 .00006639,0.00002865,0.00001804,0.00000198,0.00000386,-0.00002866,-0.0
 0001692,-0.00005242,-0.00004432,0.00001440,-0.00000621,-0.00000129,0.0
 0000159,0.00001598,-0.00000643,0.00000047,0.00001463,-0.00005270,0.000
 03995,0.00007524,-0.00002373,-0.00000861,-0.00001348,0.00007665,-0.000
 08987,-0.00002793,0.00004201,0.00001526,-0.00002771,0.00000535,-0.0000
 1490,0.00001180,-0.00001764,-0.00016062,-0.00001618,0.00003048,0.00009
 607,0.00013867,0.00032680,0.00049230,0.00003613,-0.00012734,-0.0001656
 7,0.00011687,0.00012300,-0.00004699,-0.00011225,0.00037327,-0.00029526
 ,-0.00000786,0.00013680,0.00018978,0.00003394,-0.00001737,-0.00007287,
 -0.00001188,-0.00002779,-0.00009230,-0.00019519,0.00005605,0.00019886,
 -0.00011735,0.00001759,0.00009487,0.00014524,0.00000200,-0.00000856,-0
 .00003785,0.00000475,-0.00003905,0.00007282,0.00000038,-0.00000355,-0.
 00001560,0.00002523,0.00003398,-0.00003476,-0.00002201,-0.00000094,0.0
 0000606,-0.00002061,-0.00001100,0.00000529,0.00001080,-0.00002117,-0.0
 0000062,0.00040563,-0.00031424,-0.00016842,-0.00018522,0.00038374,0.00
 016084,0.00017921,0.00006726,-0.00000203,0.00051256,-0.00087384,0.0010
 2764,0.00023206,0.00010970,0.00063752,-0.00000509,-0.00027341,-0.00020
 653,0.00006724,-0.00007500,-0.00020834,-0.00004750,0.00001559,-0.00004
 140,-0.00002306,0.00006507,-0.00006195,0.00001426,-0.00003256,-0.00000
 342,0.00004586,-0.00004080,-0.00001394,0.00000903,0.00000172,0.0000374
 8,-0.00014304,-0.00015041,-0.00011215,-0.00011861,0.00019678,-0.000251
 82,-0.00002815,0.00004467,-0.00002535,-0.00000506,-0.00000250,-0.00001
 584,-0.00001017,-0.00001645,0.00000854,0.00012185,0.00003156,-0.000036
 19,0.00000624,-0.00013950,0.00013920,-0.00083086,0.00043252,0.00001733
 ,0.00015987,-0.00014071,-0.00028806,-0.00018107,0.00014310,-0.00004617
 ,-0.00010201,-0.00033300,-0.00014980,0.00000133,0.00006429,-0.00003071
 ,-0.00002439,-0.00003402,0.00001680,0.00007298,0.00004083,-0.00002368,
 -0.00001016,-0.00022664,0.00001332,-0.00009268,0.00019647,0.00006948,0
 .00009135,0.00015137,0.00035564,-0.00001459,-0.00002585,-0.00001131,-0
 .00000537,0.00000497,0.00001379,-0.00000106,0.00000780,0.00000713,0.02
 466866,0.00334271,0.00051427,-0.00645581,0.00052232,-0.00776677,-0.005
 80123,-0.00062285,0.00510138,-0.01140225,-0.01291135,0.00021168,-0.000
 56416,0.00009064,0.00089620,0.00081339,0.00001789,-0.00127220,0.000086
 61,0.00001198,-0.00015125,0.00182795,0.00321808,-0.00164698,0.00021920
 ,-0.00202453,0.00031854,-0.00222858,-0.00120896,0.00322712,0.00013004,
 -0.00039702,0.00077663,-0.00000521,0.00011628,-0.00025350,-0.00035906,
 0.00042513,-0.00106999,-0.00020646,0.00025721,0.00005152,0.00022265,-0
 .00032674,-0.00011776,0.00003021,-0.00003237,-0.00003304,0.00183801,-0
 .00125473,0.00096912,-0.00296289,0.00178491,-0.00166717,-0.00018598,0.
 00002506,0.00010319,0.00035366,0.00033568,-0.00042591,-0.00008191,0.00
 001009,0.00014812,-0.00044559,-0.00060304,0.00020646,-0.00028512,0.000
 09368,-0.00086458,-0.00021980,-0.00015063,0.00005710,0.00079933,0.0000
 9165,0.00121557,-0.03339770,0.16544521,-0.22190370,-0.00524313,0.02897
 841,-0.03021625,0.03799720,-0.18475480,0.25279914\\0.00000031,-0.00000
 072,-0.00000065,0.00000115,-0.00000114,0.00000046,0.00000060,-0.000000
 59,-0.00000030,0.00000057,-0.00000031,-0.00000030,0.00000043,-0.000000
 63,-0.00000022,0.00000017,0.00000038,-0.00000095,0.00000129,-0.0000004
 8,-0.00000059,0.00000018,-0.00000054,-0.00000030,0.00000084,-0.0000015
 8,-0.00000049,-0.00000034,0.00000034,-0.00000048,-0.00000019,-0.000000
 03,-0.00000038,0.00000057,-0.00000075,-0.00000023,-0.00000049,0.000000
 03,-0.00000009,0.00000042,-0.00000117,-0.00000005,-0.00000022,0.000000
 28,-0.00000062,-0.00000055,-0.00000064,-0.00000028,-0.00000016,-0.0000
 0089,-0.00000055,-0.00000068,-0.00000076,-0.00000031,-0.00000038,-0.00
 000075,-0.00000044,-0.00000040,-0.00000086,-0.00000043,-0.00000017,-0.
 00000074,-0.00000033,0.00000029,0.00000130,0.00000026,-0.00000004,0.00
 000007,-0.00000032,0.00000022,0.00000264,-0.00000004,-0.00000076,-0.00
 000082,-0.00000135,-0.00000025,-0.00000071,-0.00000029,-0.00000204,-0.
 00000029,-0.00000030,0.00000013,-0.00000169,0.00000001,0.00000059,0.00
 000047,0.00000041,-0.00000097,-0.00000122,-0.00000080,-0.00000395,-0.0
 0000279,0.00000351,0.00000090,-0.00000179,0.00000056,-0.00000026,-0.00
 000210,-0.00000180,0.00000090,-0.00000261,0.00000013,-0.00000096,-0.00
 000160,-0.00000096,-0.00000051,-0.00000004,0.00000013,0.00000130,-0.00
 000121,-0.00000160,0.00000061,-0.00000045,0.,-0.00000096,-0.00000109,0
 .00000744,-0.00000131,0.00000014,-0.00000213,0.00000076,0.00000133,-0.
 00000015,-0.00000840,-0.00000208,-0.00000218,0.00000025,0.00000088,-0.
 00000082,0.00000810,0.00000440,-0.00000033,-0.00000100,-0.00000017,0.0
 0000166,0.00000026,-0.00000092,0.00000059,0.00000463,0.00000519,-0.000
 00169,-0.00000062,0.00000021,0.00000034,-0.00000588,-0.00000402,0.0000
 0081,-0.00000246,0.00000576,0.00000311,0.00000521,0.00000322,-0.000000
 28,0.00000384,0.00000340,-0.00000013,0.00000037,-0.00000041,-0.0000006
 7,0.00000329,-0.00000051,-0.00000240,0.00000169,0.00000120,-0.00000038
 ,0.00000099,0.00000047,0.00000034,0.00000154,-0.00000209,0.00000427,0.
 00000111,-0.00000012,0.00000128,-0.00000011,0.00000069,0.00000284,-0.0
 0000372,-0.00000396,-0.00000053,0.00000112,-0.00000182,-0.00000074,-0.
 00000132,-0.00000113,-0.00000265,0.00000232,0.00000605,-0.00000037,-0.
 00000039,-0.00000207,0.00000123,0.00000287,0.00000239,0.00000047,0.000
 00119,-0.00000067,-0.00000163,-0.00000101,0.00000068,0.00000039,-0.000
 00299,-0.00000083,0.00000031,-0.00000113,0.00000114,0.00000109,-0.0000
 0042,0.00000209,-0.00000242,-0.00000112,-0.00000054,0.00000029,0.00000
 322,0.00000190,0.00000263,-0.00000496,0.00000259,0.00000061,-0.0000005
 3,0.00000041,-0.00000026,-0.00000090,0.00000003,-0.00000015,-0.0000005
 8,0.00000058,-0.00000011,-0.00000136,-0.00000078,-0.00000097,0.0000012
 5,-0.00000059,-0.00000114,-0.00000120,0.00000036,0.00000346,-0.0000024
 1,-0.00000441,0.00000196,-0.00000077,-0.00000054,0.00000065,0.00000012
 ,0.00000110,0.,-0.00000240,-0.00000054,0.00000106,-0.00000011,-0.00000
 003,0.00000025,-0.00000008,-0.00000123,-0.00000135,0.00000020,-0.00000
 383,-0.00000031,-0.00000183,0.00000073,-0.00000134,0.00000330,-0.00000
 239,-0.00000430,0.00000087,0.00000034,-0.00000001,0.00000023,0.0000004
 9,-0.00000041,0.00000061,0.00000008,-0.00000027,-0.00002462,0.00002978
 ,0.00000730,0.00003357,-0.00002669,-0.00001552,0.00000261,-0.00000633,
 0.00000195,-0.00000284,0.00000602,-0.00000012,0.00000452,-0.00000872,0
 .00000937,0.00000169,0.00000836,-0.00000083,-0.00000619,0.00000433,-0.
 00000254,-0.00001138,-0.00000294,-0.00001874,-0.00000466,0.00000488,0.
 00001417,0.00001308,0.00000900,0.00000579,0.00001757,-0.00000292,-0.00
 001046,-0.00000373,0.00000379,0.00000595,-0.00000139,-0.00000246,-0.00
 000622,-0.00000213,-0.00000198,0.00000002,0.00000242,0.00000307,-0.000
 00251,-0.00000036,0.00000018,0.00000010,-0.00002015,-0.00000174,0.0000
 1134,0.00001153,-0.00000221,-0.00000647,-0.00000205,0.00000116,0.00000
 083,-0.00000607,-0.00000473,0.00000082,0.00001369,-0.00000339,-0.00000
 043,-0.00000406,0.00000499,0.00000006,0.00001340,0.00001348,-0.0000009
 3,-0.00000169,-0.00000477,0.00000355,-0.00002077,-0.00000387,0.0000035
 2,0.00000095,-0.00000613,-0.00000052,0.00000037,-0.00000089,0.00000553
 ,-0.00000083,0.00000408,-0.00000203\\\@


 Standing in the middle of the road is very dangerous;
 you get knocked down by the traffic from both sides.
                                -- Margaret Thatcher
 Job cpu time:     127 days  8 hours 17 minutes 38.0 seconds.
 Elapsed time:       3 days  5 hours 59 minutes 25.1 seconds.
 File lengths (MBytes):  RWF= 135316 Int=      0 D2E=      0 Chk=    291 Scr=      1
 Normal termination of Gaussian 16 at Sun Apr 28 03:27:03 2024.
