 Entering Gaussian System, Link 0=g16
 Input=dry-v2.gjf
 Output=dry-v2.log
 Initial command:
 /packages/apps/gaussian/g16/g16/l1.exe "/scratch/mdturne9/3-5-ethyl/ofreq/Gau-2349227.inp" -scrdir="/scratch/mdturne9/3-5-ethyl/ofreq/"
 Entering Link 1 = /packages/apps/gaussian/g16/g16/l1.exe PID=   2349228.
  
 Copyright (c) 1988,1990,1992,1993,1995,1998,2003,2009,2016,
            Gaussian, Inc.  All Rights Reserved.
  
 This is part of the Gaussian(R) 16 program.  It is based on
 the Gaussian(R) 09 system (copyright 2009, Gaussian, Inc.),
 the Gaussian(R) 03 system (copyright 2003, Gaussian, Inc.),
 the Gaussian(R) 98 system (copyright 1998, Gaussian, Inc.),
 the Gaussian(R) 94 system (copyright 1995, Gaussian, Inc.),
 the Gaussian 92(TM) system (copyright 1992, Gaussian, Inc.),
 the Gaussian 90(TM) system (copyright 1990, Gaussian, Inc.),
 the Gaussian 88(TM) system (copyright 1988, Gaussian, Inc.),
 the Gaussian 86(TM) system (copyright 1986, Carnegie Mellon
 University), and the Gaussian 82(TM) system (copyright 1983,
 Carnegie Mellon University). Gaussian is a federally registered
 trademark of Gaussian, Inc.
  
 This software contains proprietary and confidential information,
 including trade secrets, belonging to Gaussian, Inc.
  
 This software is provided under written license and may be
 used, copied, transmitted, or stored only in accord with that
 written license.
  
 The following legend is applicable only to US Government
 contracts under FAR:
  
                    RESTRICTED RIGHTS LEGEND
  
 Use, reproduction and disclosure by the US Government is
 subject to restrictions as set forth in subparagraphs (a)
 and (c) of the Commercial Computer Software - Restricted
 Rights clause in FAR 52.227-19.
  
 Gaussian, Inc.
 340 Quinnipiac St., Bldg. 40, Wallingford CT 06492
  
  
 ---------------------------------------------------------------
 Warning -- This program may not be used in any manner that
 competes with the business of Gaussian, Inc. or will provide
 assistance to any competitor of Gaussian, Inc.  The licensee
 of this program is prohibited from giving any competitor of
 Gaussian, Inc. access to this program.  By using this program,
 the user acknowledges that Gaussian, Inc. is engaged in the
 business of creating and licensing software in the field of
 computational chemistry and represents and warrants to the
 licensee that it is not a competitor of Gaussian, Inc. and that
 it will not use this program in any manner prohibited above.
 ---------------------------------------------------------------
  

 Cite this work as:
 Gaussian 16, Revision A.03,
 M. J. Frisch, G. W. Trucks, H. B. Schlegel, G. E. Scuseria, 
 M. A. Robb, J. R. Cheeseman, G. Scalmani, V. Barone, 
 G. A. Petersson, H. Nakatsuji, X. Li, M. Caricato, A. V. Marenich, 
 J. Bloino, B. G. Janesko, R. Gomperts, B. Mennucci, H. P. Hratchian, 
 J. V. Ortiz, A. F. Izmaylov, J. L. Sonnenberg, D. Williams-Young, 
 F. Ding, F. Lipparini, F. Egidi, J. Goings, B. Peng, A. Petrone, 
 T. Henderson, D. Ranasinghe, V. G. Zakrzewski, J. Gao, N. Rega, 
 G. Zheng, W. Liang, M. Hada, M. Ehara, K. Toyota, R. Fukuda, 
 J. Hasegawa, M. Ishida, T. Nakajima, Y. Honda, O. Kitao, H. Nakai, 
 T. Vreven, K. Throssell, J. A. Montgomery, Jr., J. E. Peralta, 
 F. Ogliaro, M. J. Bearpark, J. J. Heyd, E. N. Brothers, K. N. Kudin, 
 V. N. Staroverov, T. A. Keith, R. Kobayashi, J. Normand, 
 K. Raghavachari, A. P. Rendell, J. C. Burant, S. S. Iyengar, 
 J. Tomasi, M. Cossi, J. M. Millam, M. Klene, C. Adamo, R. Cammi, 
 J. W. Ochterski, R. L. Martin, K. Morokuma, O. Farkas, 
 J. B. Foresman, and D. J. Fox, Gaussian, Inc., Wallingford CT, 2016.
 
 ******************************************
 Gaussian 16:  ES64L-G16RevA.03 25-Dec-2016
                 7-May-2024 
 ******************************************
 %oldchk=dry.chk
 %nprocshared=40
 Will use up to   40 processors via shared memory.
 %mem=17GB
 %chk=dry-v2.chk
 Copying data from "dry.chk" to current chk file "dry-v2.chk"
 IOpt=  2 FromEx=T IUOpen= 4 IOptOp= 5 NList=   0 IFRang= 0 IUIn= 4 IUOut= 2.
 ---------------------------------------------------
 #p opt=readfc freq wb97xd/6-311+g(2d,2p) guess=read
 ---------------------------------------------------
 1/10=3,18=20,19=15,26=3,38=1/1,3;
 2/9=110,12=2,17=6,18=5,40=1/2;
 3/5=4,6=6,7=212,11=2,25=1,30=1,71=1,74=-58,116=-2/1,2,3;
 4/5=1/1;
 5/5=2,38=6/2;
 6/7=2,8=2,9=2,10=2,28=1/1;
 7//1,2,3,16;
 1/18=20,19=15,26=3/3(2);
 2/9=110/2;
 99//99;
 2/9=110/2;
 3/5=4,6=6,7=212,11=2,25=1,30=1,71=1,74=-58/1,2,3;
 4/5=5,16=3,69=1/1;
 5/5=2,38=5/2;
 7//1,2,3,16;
 1/18=20,19=15,26=3/3(-5);
 2/9=110/2;
 6/7=2,8=2,9=2,10=2,19=2,28=1/1;
 99/9=1/99;
 Leave Link    1 at Tue May  7 19:19:15 2024, MaxMem=  2281701376 cpu:              54.7 elap:               1.9
 (Enter /packages/apps/gaussian/g16/g16/l101.exe)
 --------
 Required
 --------
 Symbolic Z-matrix:
 Charge =  0 Multiplicity = 1
 C                     4.77359  -3.89402  -1.40993 
 C                     5.27205  -2.82607  -0.44381 
 H                     5.3704   -4.80277  -1.3306 
 H                     3.73385  -4.15406  -1.21005 
 H                     4.83328  -3.54291  -2.44208 
 C                     4.51392  -1.49317  -0.55242 
 H                     5.20437  -3.19579   0.5834 
 H                     6.33162  -2.63372  -0.62879 
 C                     5.12714  -0.45013   0.40276 
 H                     4.648    -1.12626  -1.57548 
 H                     4.78905  -0.65075   1.42344 
 H                     6.21017  -0.59865   0.4136 
 C                     4.88168   1.03029   0.05851 
 C                     5.63613   1.93235   1.04779 
 H                     5.3074    1.20541  -0.93529 
 H                     5.23172   1.77347   2.05142 
 H                     6.68012   1.61086   1.08288 
 C                     5.5699    3.41379   0.69692 
 H                     6.14483   4.01      1.40554 
 H                     5.97495   3.59704  -0.30042 
 H                     4.54147   3.77588   0.70807 
 C                     3.41367   1.39276  -0.01416 
 C                     2.85665   1.90799  -1.17723 
 C                     2.56573   1.16234   1.06438 
 C                     1.4911    2.1311   -1.28321 
 H                     3.49159   2.09119  -2.03566 
 C                     1.20369   1.37069   0.96153 
 H                     2.9609    0.74541   1.98182 
 C                     0.64      1.8567   -0.21904 
 H                     1.09149   2.46884  -2.22709 
 H                     0.55218   1.0866    1.77849 
 C                     3.02486  -1.68355  -0.33537 
 C                     2.10961  -1.33308  -1.31769 
 C                     2.52561  -2.16183   0.87367 
 C                     0.74512  -1.39955  -1.08902 
 H                     2.46684  -0.93911  -2.26033 
 C                     1.16282  -2.23979   1.10514 
 H                     3.20774  -2.43432   1.66983 
 C                     0.24679  -1.85831   0.12738 
 H                     0.05477  -1.03105  -1.83754 
 H                     0.81661  -2.55315   2.07827 
 C                    -1.23458  -1.76759   0.38864 
 H                    -1.43201  -1.4567    1.41108 
 H                    -1.64189  -1.02659  -0.29169 
 C                    -0.86364   1.88071  -0.3325 
 H                    -1.19373   1.51566  -1.30285 
 H                    -1.24929   1.21435   0.43315 
 C                    -2.49354  -3.65979   1.46756 
 H                    -3.18464  -4.46099   1.20476 
 C                    -1.36867  -4.17409   2.34002 
 H                    -3.02063  -2.8913    2.02546 
 C                    -1.39734  -4.06599  -0.69769 
 C                    -1.35974  -3.77035  -2.18842 
 H                    -0.3901   -4.1603   -0.3054 
 H                    -1.91957  -5.00474  -0.51474 
 C                    -3.36859  -2.61366  -0.55435 
 C                    -4.27763  -1.70123   0.2466 
 H                    -3.05785  -2.10065  -1.45968 
 H                    -3.88445  -3.53669  -0.82027 
 C                    -2.05398   3.82895  -1.39794 
 H                    -2.64824   4.69722  -1.11308 
 C                    -0.97174   4.21243  -2.38389 
 H                    -2.69087   3.09188  -1.88132 
 C                    -2.8383    2.931     0.72854 
 C                    -3.84708   2.01164   0.06904 
 H                    -2.49236   2.47065   1.64906 
 H                    -3.28215   3.9015    0.95244 
 C                    -0.75168   4.22098   0.65234 
 C                    -0.60016   3.97139   2.14406 
 H                     0.21987   4.22445   0.169 
 H                    -1.21724   5.19076   0.47928 
 N                    -2.0933   -3.03369   0.15294 
 N                    -1.59572   3.21913  -0.09421 
 C                    -2.94013   0.28419  -2.87349 
 O                    -2.02245  -0.3386   -2.3078 
 O                    -3.00862   1.48383  -3.18078 
 O                    -4.05394  -0.49571  -3.17163 
 H                    -4.66563   0.10248  -3.60608 
 C                    -2.48751   0.08792   3.05469 
 O                    -1.53205   0.64758   2.4907 
 O                    -2.68326  -1.12199   3.26383 
 O                    -3.48885   0.95546   3.48012 
 H                    -4.14185   0.39251   3.90127 
 H                    -1.48727   4.26923   2.69864 
 H                     0.23747   4.57014   2.50002 
 H                    -0.40149   2.92947   2.37825 
 H                    -4.55569   1.71787   0.84226 
 H                    -3.37876   1.10643  -0.31128 
 H                    -4.39138   2.47638  -0.74922 
 H                    -0.57333   3.32787  -2.87252 
 H                    -0.16053   4.79727  -1.95342 
 H                    -1.44249   4.81258  -3.16156 
 H                    -4.84181  -2.22439   1.0155 
 H                    -4.9778   -1.25479  -0.45807 
 H                    -3.72777  -0.89538   0.7264 
 H                    -0.65219  -4.80479   1.8166 
 H                    -1.8197   -4.76813   3.13408 
 H                    -0.85553  -3.34605   2.82032 
 H                    -0.6056   -4.41485  -2.63857 
 H                    -1.10193  -2.7378   -2.40526 
 H                    -2.31289  -3.97932  -2.66911 
 
 Add virtual bond connecting atoms O75        and H40        Dist= 4.23D+00.
 Add virtual bond connecting atoms O75        and H44        Dist= 4.09D+00.
 Add virtual bond connecting atoms O75        and H58        Dist= 4.18D+00.
 Add virtual bond connecting atoms O76        and H63        Dist= 3.95D+00.
 Add virtual bond connecting atoms O80        and H31        Dist= 4.24D+00.
 Add virtual bond connecting atoms O80        and H47        Dist= 4.07D+00.
 Add virtual bond connecting atoms O80        and H66        Dist= 4.21D+00.
 Add virtual bond connecting atoms O81        and H43        Dist= 4.27D+00.
 Add virtual bond connecting atoms O81        and H51        Dist= 4.13D+00.
 ITRead=  0  0  0  0  0  0  0  0  0  0  0  0  0  0  0  0  0  0  0  0
 ITRead=  0  0  0  0  0  0  0  0  0  0  0  0  0  0  0  0  0  0  0  0
 ITRead=  0  0  0  0  0  0  0  0  0  0  0  0  0  0  0  0  0  0  0  0
 ITRead=  0  0  0  0  0  0  0  0  0  0  0  0  0  0  0  0  0  0  0  0
 ITRead=  0  0  0  0  0  0  0  0  0  0  0  0  0  0  0  0  0  0  0  0
 ITRead=  0
 MicOpt= -1 -1 -1 -1 -1 -1 -1 -1 -1 -1 -1 -1 -1 -1 -1 -1 -1 -1 -1 -1
 MicOpt= -1 -1 -1 -1 -1 -1 -1 -1 -1 -1 -1 -1 -1 -1 -1 -1 -1 -1 -1 -1
 MicOpt= -1 -1 -1 -1 -1 -1 -1 -1 -1 -1 -1 -1 -1 -1 -1 -1 -1 -1 -1 -1
 MicOpt= -1 -1 -1 -1 -1 -1 -1 -1 -1 -1 -1 -1 -1 -1 -1 -1 -1 -1 -1 -1
 MicOpt= -1 -1 -1 -1 -1 -1 -1 -1 -1 -1 -1 -1 -1 -1 -1 -1 -1 -1 -1 -1
 MicOpt= -1
 NAtoms=    101 NQM=      101 NQMF=       0 NMMI=      0 NMMIF=      0
                NMic=       0 NMicF=      0.
                    Isotopes and Nuclear Properties:
 (Nuclear quadrupole moments (NQMom) in fm**2, nuclear magnetic moments (NMagM)
  in nuclear magnetons)

  Atom         1           2           3           4           5           6           7           8           9          10
 IAtWgt=          12          12           1           1           1          12           1           1          12           1
 AtmWgt=  12.0000000  12.0000000   1.0078250   1.0078250   1.0078250  12.0000000   1.0078250   1.0078250  12.0000000   1.0078250
 NucSpn=           0           0           1           1           1           0           1           1           0           1
 AtZEff=  -0.0000000  -0.0000000  -0.0000000  -0.0000000  -0.0000000  -0.0000000  -0.0000000  -0.0000000  -0.0000000  -0.0000000
 NQMom=    0.0000000   0.0000000   0.0000000   0.0000000   0.0000000   0.0000000   0.0000000   0.0000000   0.0000000   0.0000000
 NMagM=    0.0000000   0.0000000   2.7928460   2.7928460   2.7928460   0.0000000   2.7928460   2.7928460   0.0000000   2.7928460
 AtZNuc=   6.0000000   6.0000000   1.0000000   1.0000000   1.0000000   6.0000000   1.0000000   1.0000000   6.0000000   1.0000000

  Atom        11          12          13          14          15          16          17          18          19          20
 IAtWgt=           1           1          12          12           1           1           1          12           1           1
 AtmWgt=   1.0078250   1.0078250  12.0000000  12.0000000   1.0078250   1.0078250   1.0078250  12.0000000   1.0078250   1.0078250
 NucSpn=           1           1           0           0           1           1           1           0           1           1
 AtZEff=  -0.0000000  -0.0000000  -0.0000000  -0.0000000  -0.0000000  -0.0000000  -0.0000000  -0.0000000  -0.0000000  -0.0000000
 NQMom=    0.0000000   0.0000000   0.0000000   0.0000000   0.0000000   0.0000000   0.0000000   0.0000000   0.0000000   0.0000000
 NMagM=    2.7928460   2.7928460   0.0000000   0.0000000   2.7928460   2.7928460   2.7928460   0.0000000   2.7928460   2.7928460
 AtZNuc=   1.0000000   1.0000000   6.0000000   6.0000000   1.0000000   1.0000000   1.0000000   6.0000000   1.0000000   1.0000000

  Atom        21          22          23          24          25          26          27          28          29          30
 IAtWgt=           1          12          12          12          12           1          12           1          12           1
 AtmWgt=   1.0078250  12.0000000  12.0000000  12.0000000  12.0000000   1.0078250  12.0000000   1.0078250  12.0000000   1.0078250
 NucSpn=           1           0           0           0           0           1           0           1           0           1
 AtZEff=  -0.0000000  -0.0000000  -0.0000000  -0.0000000  -0.0000000  -0.0000000  -0.0000000  -0.0000000  -0.0000000  -0.0000000
 NQMom=    0.0000000   0.0000000   0.0000000   0.0000000   0.0000000   0.0000000   0.0000000   0.0000000   0.0000000   0.0000000
 NMagM=    2.7928460   0.0000000   0.0000000   0.0000000   0.0000000   2.7928460   0.0000000   2.7928460   0.0000000   2.7928460
 AtZNuc=   1.0000000   6.0000000   6.0000000   6.0000000   6.0000000   1.0000000   6.0000000   1.0000000   6.0000000   1.0000000

  Atom        31          32          33          34          35          36          37          38          39          40
 IAtWgt=           1          12          12          12          12           1          12           1          12           1
 AtmWgt=   1.0078250  12.0000000  12.0000000  12.0000000  12.0000000   1.0078250  12.0000000   1.0078250  12.0000000   1.0078250
 NucSpn=           1           0           0           0           0           1           0           1           0           1
 AtZEff=  -0.0000000  -0.0000000  -0.0000000  -0.0000000  -0.0000000  -0.0000000  -0.0000000  -0.0000000  -0.0000000  -0.0000000
 NQMom=    0.0000000   0.0000000   0.0000000   0.0000000   0.0000000   0.0000000   0.0000000   0.0000000   0.0000000   0.0000000
 NMagM=    2.7928460   0.0000000   0.0000000   0.0000000   0.0000000   2.7928460   0.0000000   2.7928460   0.0000000   2.7928460
 AtZNuc=   1.0000000   6.0000000   6.0000000   6.0000000   6.0000000   1.0000000   6.0000000   1.0000000   6.0000000   1.0000000

  Atom        41          42          43          44          45          46          47          48          49          50
 IAtWgt=           1          12           1           1          12           1           1          12           1          12
 AtmWgt=   1.0078250  12.0000000   1.0078250   1.0078250  12.0000000   1.0078250   1.0078250  12.0000000   1.0078250  12.0000000
 NucSpn=           1           0           1           1           0           1           1           0           1           0
 AtZEff=  -0.0000000  -0.0000000  -0.0000000  -0.0000000  -0.0000000  -0.0000000  -0.0000000  -0.0000000  -0.0000000  -0.0000000
 NQMom=    0.0000000   0.0000000   0.0000000   0.0000000   0.0000000   0.0000000   0.0000000   0.0000000   0.0000000   0.0000000
 NMagM=    2.7928460   0.0000000   2.7928460   2.7928460   0.0000000   2.7928460   2.7928460   0.0000000   2.7928460   0.0000000
 AtZNuc=   1.0000000   6.0000000   1.0000000   1.0000000   6.0000000   1.0000000   1.0000000   6.0000000   1.0000000   6.0000000

  Atom        51          52          53          54          55          56          57          58          59          60
 IAtWgt=           1          12          12           1           1          12          12           1           1          12
 AtmWgt=   1.0078250  12.0000000  12.0000000   1.0078250   1.0078250  12.0000000  12.0000000   1.0078250   1.0078250  12.0000000
 NucSpn=           1           0           0           1           1           0           0           1           1           0
 AtZEff=  -0.0000000  -0.0000000  -0.0000000  -0.0000000  -0.0000000  -0.0000000  -0.0000000  -0.0000000  -0.0000000  -0.0000000
 NQMom=    0.0000000   0.0000000   0.0000000   0.0000000   0.0000000   0.0000000   0.0000000   0.0000000   0.0000000   0.0000000
 NMagM=    2.7928460   0.0000000   0.0000000   2.7928460   2.7928460   0.0000000   0.0000000   2.7928460   2.7928460   0.0000000
 AtZNuc=   1.0000000   6.0000000   6.0000000   1.0000000   1.0000000   6.0000000   6.0000000   1.0000000   1.0000000   6.0000000

  Atom        61          62          63          64          65          66          67          68          69          70
 IAtWgt=           1          12           1          12          12           1           1          12          12           1
 AtmWgt=   1.0078250  12.0000000   1.0078250  12.0000000  12.0000000   1.0078250   1.0078250  12.0000000  12.0000000   1.0078250
 NucSpn=           1           0           1           0           0           1           1           0           0           1
 AtZEff=  -0.0000000  -0.0000000  -0.0000000  -0.0000000  -0.0000000  -0.0000000  -0.0000000  -0.0000000  -0.0000000  -0.0000000
 NQMom=    0.0000000   0.0000000   0.0000000   0.0000000   0.0000000   0.0000000   0.0000000   0.0000000   0.0000000   0.0000000
 NMagM=    2.7928460   0.0000000   2.7928460   0.0000000   0.0000000   2.7928460   2.7928460   0.0000000   0.0000000   2.7928460
 AtZNuc=   1.0000000   6.0000000   1.0000000   6.0000000   6.0000000   1.0000000   1.0000000   6.0000000   6.0000000   1.0000000

  Atom        71          72          73          74          75          76          77          78          79          80
 IAtWgt=           1          14          14          12          16          16          16           1          12          16
 AtmWgt=   1.0078250  14.0030740  14.0030740  12.0000000  15.9949146  15.9949146  15.9949146   1.0078250  12.0000000  15.9949146
 NucSpn=           1           2           2           0           0           0           0           1           0           0
 AtZEff=  -0.0000000  -0.0000000  -0.0000000  -0.0000000  -0.0000000  -0.0000000  -0.0000000  -0.0000000  -0.0000000  -0.0000000
 NQMom=    0.0000000   2.0440000   2.0440000   0.0000000   0.0000000   0.0000000   0.0000000   0.0000000   0.0000000   0.0000000
 NMagM=    2.7928460   0.4037610   0.4037610   0.0000000   0.0000000   0.0000000   0.0000000   2.7928460   0.0000000   0.0000000
 AtZNuc=   1.0000000   7.0000000   7.0000000   6.0000000   8.0000000   8.0000000   8.0000000   1.0000000   6.0000000   8.0000000

  Atom        81          82          83          84          85          86          87          88          89          90
 IAtWgt=          16          16           1           1           1           1           1           1           1           1
 AtmWgt=  15.9949146  15.9949146   1.0078250   1.0078250   1.0078250   1.0078250   1.0078250   1.0078250   1.0078250   1.0078250
 NucSpn=           0           0           1           1           1           1           1           1           1           1
 AtZEff=  -0.0000000  -0.0000000  -0.0000000  -0.0000000  -0.0000000  -0.0000000  -0.0000000  -0.0000000  -0.0000000  -0.0000000
 NQMom=    0.0000000   0.0000000   0.0000000   0.0000000   0.0000000   0.0000000   0.0000000   0.0000000   0.0000000   0.0000000
 NMagM=    0.0000000   0.0000000   2.7928460   2.7928460   2.7928460   2.7928460   2.7928460   2.7928460   2.7928460   2.7928460
 AtZNuc=   8.0000000   8.0000000   1.0000000   1.0000000   1.0000000   1.0000000   1.0000000   1.0000000   1.0000000   1.0000000

  Atom        91          92          93          94          95          96          97          98          99         100
 IAtWgt=           1           1           1           1           1           1           1           1           1           1
 AtmWgt=   1.0078250   1.0078250   1.0078250   1.0078250   1.0078250   1.0078250   1.0078250   1.0078250   1.0078250   1.0078250
 NucSpn=           1           1           1           1           1           1           1           1           1           1
 AtZEff=  -0.0000000  -0.0000000  -0.0000000  -0.0000000  -0.0000000  -0.0000000  -0.0000000  -0.0000000  -0.0000000  -0.0000000
 NQMom=    0.0000000   0.0000000   0.0000000   0.0000000   0.0000000   0.0000000   0.0000000   0.0000000   0.0000000   0.0000000
 NMagM=    2.7928460   2.7928460   2.7928460   2.7928460   2.7928460   2.7928460   2.7928460   2.7928460   2.7928460   2.7928460
 AtZNuc=   1.0000000   1.0000000   1.0000000   1.0000000   1.0000000   1.0000000   1.0000000   1.0000000   1.0000000   1.0000000

  Atom       101
 IAtWgt=           1
 AtmWgt=   1.0078250
 NucSpn=           1
 AtZEff=  -0.0000000
 NQMom=    0.0000000
 NMagM=    2.7928460
 AtZNuc=   1.0000000
 Leave Link  101 at Tue May  7 19:19:16 2024, MaxMem=  2281701376 cpu:              17.8 elap:               0.7
 (Enter /packages/apps/gaussian/g16/g16/l103.exe)

 GradGradGradGradGradGradGradGradGradGradGradGradGradGradGradGradGradGrad
 Berny optimization.
 Initialization pass.
 Force constant matrix read from checkpoint file:
 "dry-v2.chk"
 NVar current= 638 chk= 638 common= 638.
                           ----------------------------
                           !    Initial Parameters    !
                           ! (Angstroms and Degrees)  !
 --------------------------                            --------------------------
 ! Name  Definition              Value          Derivative Info.                !
 --------------------------------------------------------------------------------
 ! R1    R(1,2)                  1.5239         D2E/DX2 =    0.2909             !
 ! R2    R(1,3)                  1.0901         D2E/DX2 =    0.3413             !
 ! R3    R(1,4)                  1.0902         D2E/DX2 =    0.3418             !
 ! R4    R(1,5)                  1.0919         D2E/DX2 =    0.3375             !
 ! R5    R(2,6)                  1.5373         D2E/DX2 =    0.2769             !
 ! R6    R(2,7)                  1.0938         D2E/DX2 =    0.3318             !
 ! R7    R(2,8)                  1.0927         D2E/DX2 =    0.333              !
 ! R8    R(6,9)                  1.5415         D2E/DX2 =    0.2671             !
 ! R9    R(6,10)                 1.0951         D2E/DX2 =    0.3263             !
 ! R10   R(6,32)                 1.5168         D2E/DX2 =    0.2725             !
 ! R11   R(9,11)                 1.0938         D2E/DX2 =    0.3326             !
 ! R12   R(9,12)                 1.0932         D2E/DX2 =    0.332              !
 ! R13   R(9,13)                 1.5396         D2E/DX2 =    0.2694             !
 ! R14   R(13,14)                1.5367         D2E/DX2 =    0.2768             !
 ! R15   R(13,15)                1.0952         D2E/DX2 =    0.3257             !
 ! R16   R(13,22)                1.5138         D2E/DX2 =    0.2748             !
 ! R17   R(14,16)                1.0937         D2E/DX2 =    0.3319             !
 ! R18   R(14,17)                1.0929         D2E/DX2 =    0.3328             !
 ! R19   R(14,18)                1.5239         D2E/DX2 =    0.2911             !
 ! R20   R(18,19)                1.09           D2E/DX2 =    0.3416             !
 ! R21   R(18,20)                1.0919         D2E/DX2 =    0.3371             !
 ! R22   R(18,21)                1.0904         D2E/DX2 =    0.3416             !
 ! R23   R(22,23)                1.3887         D2E/DX2 =    0.3947             !
 ! R24   R(22,24)                1.3912         D2E/DX2 =    0.3716             !
 ! R25   R(23,25)                1.3877         D2E/DX2 =    0.3868             !
 ! R26   R(23,26)                1.0833         D2E/DX2 =    0.3571             !
 ! R27   R(24,27)                1.3817         D2E/DX2 =    0.3885             !
 ! R28   R(24,28)                1.0824         D2E/DX2 =    0.3598             !
 ! R29   R(25,29)                1.39           D2E/DX2 =    0.3891             !
 ! R30   R(25,30)                1.0792         D2E/DX2 =    0.3704             !
 ! R31   R(27,29)                1.3956         D2E/DX2 =    0.3087             !
 ! R32   R(27,31)                1.0829         D2E/DX2 =    0.2965             !
 ! R33   R(29,45)                1.5081         D2E/DX2 =    0.2546             !
 ! R34   R(31,80)                2.2459         D2E/DX2 =    0.0213             !
 ! R35   R(32,33)                1.3876         D2E/DX2 =    0.3845             !
 ! R36   R(32,34)                1.3928         D2E/DX2 =    0.3821             !
 ! R37   R(33,35)                1.3851         D2E/DX2 =    0.3816             !
 ! R38   R(33,36)                1.0823         D2E/DX2 =    0.3598             !
 ! R39   R(34,37)                1.3845         D2E/DX2 =    0.3928             !
 ! R40   R(34,38)                1.0832         D2E/DX2 =    0.3577             !
 ! R41   R(35,39)                1.3923         D2E/DX2 =    0.3159             !
 ! R42   R(35,40)                1.0829         D2E/DX2 =    0.2987             !
 ! R43   R(37,39)                1.3931         D2E/DX2 =    0.3847             !
 ! R44   R(37,41)                1.0794         D2E/DX2 =    0.3698             !
 ! R45   R(39,42)                1.507          D2E/DX2 =    0.2499             !
 ! R46   R(40,75)                2.2395         D2E/DX2 =    0.0211             !
 ! R47   R(42,43)                1.0867         D2E/DX2 =    0.267              !
 ! R48   R(42,44)                1.0853         D2E/DX2 =    0.2409             !
 ! R49   R(42,72)                1.5479         D2E/DX2 =    0.1631             !
 ! R50   R(43,81)                2.2606         D2E/DX2 =    0.0255             !
 ! R51   R(44,75)                2.164          D2E/DX2 =    0.0311             !
 ! R52   R(45,46)                1.088          D2E/DX2 =    0.347              !
 ! R53   R(45,47)                1.0858         D2E/DX2 =    0.2431             !
 ! R54   R(45,73)                1.544          D2E/DX2 =    0.2028             !
 ! R55   R(47,80)                2.1528         D2E/DX2 =    0.0295             !
 ! R56   R(48,49)                1.0902         D2E/DX2 =    0.3396             !
 ! R57   R(48,50)                1.5136         D2E/DX2 =    0.3009             !
 ! R58   R(48,51)                1.0861         D2E/DX2 =    0.2935             !
 ! R59   R(48,72)                1.5101         D2E/DX2 =    0.2369             !
 ! R60   R(50,96)                1.0886         D2E/DX2 =    0.3461             !
 ! R61   R(50,97)                1.0894         D2E/DX2 =    0.3445             !
 ! R62   R(50,98)                1.0861         D2E/DX2 =    0.3529             !
 ! R63   R(51,81)                2.1858         D2E/DX2 =    0.0162             !
 ! R64   R(52,53)                1.5202         D2E/DX2 =    0.2933             !
 ! R65   R(52,54)                1.085          D2E/DX2 =    0.3532             !
 ! R66   R(52,55)                1.0897         D2E/DX2 =    0.341              !
 ! R67   R(52,72)                1.5078         D2E/DX2 =    0.2854             !
 ! R68   R(53,99)                1.0894         D2E/DX2 =    0.3441             !
 ! R69   R(53,100)               1.0861         D2E/DX2 =    0.3554             !
 ! R70   R(53,101)               1.0878         D2E/DX2 =    0.3469             !
 ! R71   R(56,57)                1.5167         D2E/DX2 =    0.2981             !
 ! R72   R(56,58)                1.086          D2E/DX2 =    0.2834             !
 ! R73   R(56,59)                1.0903         D2E/DX2 =    0.3395             !
 ! R74   R(56,72)                1.5176         D2E/DX2 =    0.2257             !
 ! R75   R(57,93)                1.0877         D2E/DX2 =    0.3466             !
 ! R76   R(57,94)                1.0891         D2E/DX2 =    0.3455             !
 ! R77   R(57,95)                1.0872         D2E/DX2 =    0.3527             !
 ! R78   R(58,75)                2.2127         D2E/DX2 =    0.0221             !
 ! R79   R(60,61)                1.09           D2E/DX2 =    0.34               !
 ! R80   R(60,62)                1.5134         D2E/DX2 =    0.3011             !
 ! R81   R(60,63)                1.0875         D2E/DX2 =    0.3428             !
 ! R82   R(60,73)                1.5105         D2E/DX2 =    0.2638             !
 ! R83   R(62,90)                1.0862         D2E/DX2 =    0.3526             !
 ! R84   R(62,91)                1.0888         D2E/DX2 =    0.3456             !
 ! R85   R(62,92)                1.0893         D2E/DX2 =    0.3449             !
 ! R86   R(63,76)                2.0917         D2E/DX2 =    0.0187             !
 ! R87   R(64,65)                1.5158         D2E/DX2 =    0.3002             !
 ! R88   R(64,66)                1.0858         D2E/DX2 =    0.2866             !
 ! R89   R(64,67)                1.0904         D2E/DX2 =    0.3395             !
 ! R90   R(64,73)                1.5179         D2E/DX2 =    0.2259             !
 ! R91   R(65,87)                1.0892         D2E/DX2 =    0.3453             !
 ! R92   R(65,88)                1.0878         D2E/DX2 =    0.3507             !
 ! R93   R(65,89)                1.0871         D2E/DX2 =    0.3487             !
 ! R94   R(66,80)                2.2258         D2E/DX2 =    0.0218             !
 ! R95   R(68,69)                1.52           D2E/DX2 =    0.2934             !
 ! R96   R(68,70)                1.0851         D2E/DX2 =    0.3527             !
 ! R97   R(68,71)                1.0896         D2E/DX2 =    0.3411             !
 ! R98   R(68,73)                1.5078         D2E/DX2 =    0.2859             !
 ! R99   R(69,84)                1.0878         D2E/DX2 =    0.3468             !
 ! R100  R(69,85)                1.0894         D2E/DX2 =    0.3439             !
 ! R101  R(69,86)                1.0862         D2E/DX2 =    0.3551             !
 ! R102  R(74,75)                1.245          D2E/DX2 =    0.6314             !
 ! R103  R(74,76)                1.2403         D2E/DX2 =    0.6578             !
 ! R104  R(74,77)                1.392          D2E/DX2 =    0.3168             !
 ! R105  R(77,78)                0.9596         D2E/DX2 =    0.5466             !
 ! R106  R(79,80)                1.2427         D2E/DX2 =    0.6184             !
 ! R107  R(79,81)                1.2434         D2E/DX2 =    0.6384             !
 ! R108  R(79,82)                1.3915         D2E/DX2 =    0.3178             !
 ! R109  R(82,83)                0.9595         D2E/DX2 =    0.5463             !
 ! A1    A(2,1,3)              111.0388         D2E/DX2 =    0.1016             !
 ! A2    A(2,1,4)              111.2758         D2E/DX2 =    0.1052             !
 ! A3    A(2,1,5)              110.8583         D2E/DX2 =    0.1041             !
 ! A4    A(3,1,4)              108.056          D2E/DX2 =    0.0518             !
 ! A5    A(3,1,5)              107.8744         D2E/DX2 =    0.0511             !
 ! A6    A(4,1,5)              107.5863         D2E/DX2 =    0.0517             !
 ! A7    A(1,2,6)              113.6737         D2E/DX2 =    0.1498             !
 ! A8    A(1,2,7)              109.77           D2E/DX2 =    0.0498             !
 ! A9    A(1,2,8)              109.4648         D2E/DX2 =    0.0508             !
 ! A10   A(6,2,7)              109.2022         D2E/DX2 =    0.0519             !
 ! A11   A(6,2,8)              108.2784         D2E/DX2 =    0.0516             !
 ! A12   A(7,2,8)              106.1701         D2E/DX2 =    0.0185             !
 ! A13   A(2,6,9)              110.2868         D2E/DX2 =    0.0751             !
 ! A14   A(2,6,10)             107.2247         D2E/DX2 =    0.0229             !
 ! A15   A(2,6,32)             111.4207         D2E/DX2 =    0.0624             !
 ! A16   A(9,6,10)             107.6658         D2E/DX2 =    0.0237             !
 ! A17   A(9,6,32)             112.7545         D2E/DX2 =    0.0359             !
 ! A18   A(10,6,32)            107.2135         D2E/DX2 =    0.022              !
 ! A19   A(6,9,11)             109.339          D2E/DX2 =    0.0447             !
 ! A20   A(6,9,12)             107.9576         D2E/DX2 =    0.0431             !
 ! A21   A(6,9,13)             116.6566         D2E/DX2 =    0.0695             !
 ! A22   A(11,9,12)            105.7862         D2E/DX2 =    0.0148             !
 ! A23   A(11,9,13)            109.6176         D2E/DX2 =    0.0431             !
 ! A24   A(12,9,13)            106.9053         D2E/DX2 =    0.0458             !
 ! A25   A(9,13,14)            110.0119         D2E/DX2 =    0.0776             !
 ! A26   A(9,13,15)            107.1371         D2E/DX2 =    0.023              !
 ! A27   A(9,13,22)            113.3014         D2E/DX2 =    0.0406             !
 ! A28   A(14,13,15)           107.4242         D2E/DX2 =    0.0227             !
 ! A29   A(14,13,22)           111.496          D2E/DX2 =    0.0593             !
 ! A30   A(15,13,22)           107.1629         D2E/DX2 =    0.0225             !
 ! A31   A(13,14,16)           108.9019         D2E/DX2 =    0.0515             !
 ! A32   A(13,14,17)           108.4792         D2E/DX2 =    0.0519             !
 ! A33   A(13,14,18)           113.6463         D2E/DX2 =    0.1505             !
 ! A34   A(16,14,17)           106.3209         D2E/DX2 =    0.0185             !
 ! A35   A(16,14,18)           109.6615         D2E/DX2 =    0.0496             !
 ! A36   A(17,14,18)           109.5648         D2E/DX2 =    0.0508             !
 ! A37   A(14,18,19)           111.0468         D2E/DX2 =    0.1016             !
 ! A38   A(14,18,20)           110.9366         D2E/DX2 =    0.1039             !
 ! A39   A(14,18,21)           111.1911         D2E/DX2 =    0.105              !
 ! A40   A(19,18,20)           107.8378         D2E/DX2 =    0.0512             !
 ! A41   A(19,18,21)           108.0106         D2E/DX2 =    0.0517             !
 ! A42   A(20,18,21)           107.6672         D2E/DX2 =    0.0517             !
 ! A43   A(13,22,23)           121.1989         D2E/DX2 =    0.0999             !
 ! A44   A(13,22,24)           120.943          D2E/DX2 =    0.0946             !
 ! A45   A(23,22,24)           117.7935         D2E/DX2 =    0.0831             !
 ! A46   A(22,23,25)           121.2199         D2E/DX2 =    0.0812             !
 ! A47   A(22,23,26)           119.4263         D2E/DX2 =    0.0834             !
 ! A48   A(25,23,26)           119.277          D2E/DX2 =    0.0835             !
 ! A49   A(22,24,27)           121.2082         D2E/DX2 =    0.0802             !
 ! A50   A(22,24,28)           119.8929         D2E/DX2 =    0.0829             !
 ! A51   A(27,24,28)           118.7534         D2E/DX2 =    0.0846             !
 ! A52   A(23,25,29)           120.8177         D2E/DX2 =    0.082              !
 ! A53   A(23,25,30)           118.7823         D2E/DX2 =    0.0848             !
 ! A54   A(29,25,30)           120.3082         D2E/DX2 =    0.0818             !
 ! A55   A(24,27,29)           120.9062         D2E/DX2 =    0.0735             !
 ! A56   A(24,27,31)           119.8265         D2E/DX2 =    0.0682             !
 ! A57   A(29,27,31)           119.1137         D2E/DX2 =    0.0516             !
 ! A58   A(25,29,27)           117.9735         D2E/DX2 =    0.0775             !
 ! A59   A(25,29,45)           123.3496         D2E/DX2 =    0.0844             !
 ! A60   A(27,29,45)           118.1573         D2E/DX2 =    0.0499             !
 ! A61   A(27,31,80)           148.0905         D2E/DX2 =    0.0292             !
 ! A62   A(6,32,33)            120.9655         D2E/DX2 =    0.0965             !
 ! A63   A(6,32,34)            121.2807         D2E/DX2 =    0.1047             !
 ! A64   A(33,32,34)           117.6999         D2E/DX2 =    0.0834             !
 ! A65   A(32,33,35)           121.3843         D2E/DX2 =    0.0811             !
 ! A66   A(32,33,36)           119.3934         D2E/DX2 =    0.0835             !
 ! A67   A(35,33,36)           119.1039         D2E/DX2 =    0.0842             !
 ! A68   A(32,34,37)           121.152          D2E/DX2 =    0.0808             !
 ! A69   A(32,34,38)           119.9128         D2E/DX2 =    0.0831             !
 ! A70   A(37,34,38)           118.8677         D2E/DX2 =    0.0845             !
 ! A71   A(33,35,39)           120.8398         D2E/DX2 =    0.0739             !
 ! A72   A(33,35,40)           119.8395         D2E/DX2 =    0.0682             !
 ! A73   A(39,35,40)           119.1999         D2E/DX2 =    0.0505             !
 ! A74   A(34,37,39)           120.9629         D2E/DX2 =    0.0822             !
 ! A75   A(34,37,41)           118.8686         D2E/DX2 =    0.0848             !
 ! A76   A(39,37,41)           120.0909         D2E/DX2 =    0.0825             !
 ! A77   A(35,39,37)           117.9101         D2E/DX2 =    0.0766             !
 ! A78   A(35,39,42)           118.9126         D2E/DX2 =    0.0478             !
 ! A79   A(37,39,42)           122.7654         D2E/DX2 =    0.0837             !
 ! A80   A(35,40,75)           147.3162         D2E/DX2 =    0.0301             !
 ! A81   A(39,42,43)           111.0332         D2E/DX2 =    0.0199             !
 ! A82   A(39,42,44)           107.5391         D2E/DX2 =    0.016              !
 ! A83   A(39,42,72)           118.0153         D2E/DX2 =    0.0315             !
 ! A84   A(43,42,44)           109.0429         D2E/DX2 =    0.0101             !
 ! A85   A(43,42,72)           106.0497         D2E/DX2 =    0.0179             !
 ! A86   A(44,42,72)           104.7626         D2E/DX2 =    0.0149             !
 ! A87   A(42,43,81)           156.0634         D2E/DX2 =    0.0233             !
 ! A88   A(42,44,75)           150.124          D2E/DX2 =    0.0165             !
 ! A89   A(29,45,46)           111.3605         D2E/DX2 =    0.0304             !
 ! A90   A(29,45,47)           106.9359         D2E/DX2 =    0.0202             !
 ! A91   A(29,45,73)           118.354          D2E/DX2 =    0.0514             !
 ! A92   A(46,45,47)           108.3742         D2E/DX2 =    0.013              !
 ! A93   A(46,45,73)           106.5364         D2E/DX2 =    0.037              !
 ! A94   A(47,45,73)           104.7587         D2E/DX2 =    0.0203             !
 ! A95   A(45,47,80)           151.9027         D2E/DX2 =    0.0166             !
 ! A96   A(49,48,50)           111.121          D2E/DX2 =    0.0335             !
 ! A97   A(49,48,51)           109.6434         D2E/DX2 =    0.0161             !
 ! A98   A(49,48,72)           105.2396         D2E/DX2 =    0.0368             !
 ! A99   A(50,48,51)           107.7575         D2E/DX2 =    0.0388             !
 ! A100  A(50,48,72)           116.4681         D2E/DX2 =    0.1069             !
 ! A101  A(51,48,72)           106.4056         D2E/DX2 =    0.024              !
 ! A102  A(48,50,96)           114.1314         D2E/DX2 =    0.1072             !
 ! A103  A(48,50,97)           107.3209         D2E/DX2 =    0.1045             !
 ! A104  A(48,50,98)           110.3016         D2E/DX2 =    0.1056             !
 ! A105  A(96,50,97)           107.8801         D2E/DX2 =    0.0512             !
 ! A106  A(96,50,98)           110.0828         D2E/DX2 =    0.0552             !
 ! A107  A(97,50,98)           106.7975         D2E/DX2 =    0.0475             !
 ! A108  A(48,51,81)           142.0776         D2E/DX2 =    0.022              !
 ! A109  A(53,52,54)           110.3937         D2E/DX2 =    0.057              !
 ! A110  A(53,52,55)           110.122          D2E/DX2 =    0.0558             !
 ! A111  A(53,52,72)           115.5605         D2E/DX2 =    0.2165             !
 ! A112  A(54,52,55)           108.0172         D2E/DX2 =    0.0192             !
 ! A113  A(54,52,72)           106.4996         D2E/DX2 =    0.0691             !
 ! A114  A(55,52,72)           105.8953         D2E/DX2 =    0.0663             !
 ! A115  A(52,53,99)           107.8946         D2E/DX2 =    0.1033             !
 ! A116  A(52,53,100)          112.7387         D2E/DX2 =    0.1103             !
 ! A117  A(52,53,101)          111.9807         D2E/DX2 =    0.1107             !
 ! A118  A(99,53,100)          108.3986         D2E/DX2 =    0.051              !
 ! A119  A(99,53,101)          108.0793         D2E/DX2 =    0.0509             !
 ! A120  A(100,53,101)         107.6024         D2E/DX2 =    0.0554             !
 ! A121  A(57,56,58)           109.1201         D2E/DX2 =    0.0442             !
 ! A122  A(57,56,59)           110.7635         D2E/DX2 =    0.0335             !
 ! A123  A(57,56,72)           115.0904         D2E/DX2 =    0.1054             !
 ! A124  A(58,56,59)           109.3879         D2E/DX2 =    0.0155             !
 ! A125  A(58,56,72)           106.1898         D2E/DX2 =    0.023              !
 ! A126  A(59,56,72)           106.0786         D2E/DX2 =    0.0357             !
 ! A127  A(56,57,93)           113.2543         D2E/DX2 =    0.1098             !
 ! A128  A(56,57,94)           106.8723         D2E/DX2 =    0.1043             !
 ! A129  A(56,57,95)           112.0763         D2E/DX2 =    0.1095             !
 ! A130  A(93,57,94)           108.7281         D2E/DX2 =    0.0513             !
 ! A131  A(93,57,95)           107.8702         D2E/DX2 =    0.0557             !
 ! A132  A(94,57,95)           107.8699         D2E/DX2 =    0.0492             !
 ! A133  A(56,58,75)           146.0576         D2E/DX2 =    0.0181             !
 ! A134  A(61,60,62)           110.9937         D2E/DX2 =    0.0344             !
 ! A135  A(61,60,63)           109.6803         D2E/DX2 =    0.0173             !
 ! A136  A(61,60,73)           105.1545         D2E/DX2 =    0.04               !
 ! A137  A(62,60,63)           107.5162         D2E/DX2 =    0.0439             !
 ! A138  A(62,60,73)           116.5926         D2E/DX2 =    0.1214             !
 ! A139  A(63,60,73)           106.7207         D2E/DX2 =    0.0358             !
 ! A140  A(60,62,90)           110.4258         D2E/DX2 =    0.1057             !
 ! A141  A(60,62,91)           114.2888         D2E/DX2 =    0.1077             !
 ! A142  A(60,62,92)           107.1974         D2E/DX2 =    0.1043             !
 ! A143  A(90,62,91)           109.9989         D2E/DX2 =    0.0555             !
 ! A144  A(90,62,92)           106.6199         D2E/DX2 =    0.0474             !
 ! A145  A(91,62,92)           107.9576         D2E/DX2 =    0.0513             !
 ! A146  A(60,63,76)           152.396          D2E/DX2 =    0.0362             !
 ! A147  A(65,64,66)           108.8889         D2E/DX2 =    0.0463             !
 ! A148  A(65,64,67)           110.993          D2E/DX2 =    0.0339             !
 ! A149  A(65,64,73)           115.0934         D2E/DX2 =    0.1104             !
 ! A150  A(66,64,67)           109.4486         D2E/DX2 =    0.0159             !
 ! A151  A(66,64,73)           106.212          D2E/DX2 =    0.0236             !
 ! A152  A(67,64,73)           105.9955         D2E/DX2 =    0.0362             !
 ! A153  A(64,65,87)           106.7194         D2E/DX2 =    0.1037             !
 ! A154  A(64,65,88)           111.7335         D2E/DX2 =    0.1126             !
 ! A155  A(64,65,89)           113.6654         D2E/DX2 =    0.1111             !
 ! A156  A(87,65,88)           107.6889         D2E/DX2 =    0.0491             !
 ! A157  A(87,65,89)           108.8994         D2E/DX2 =    0.0517             !
 ! A158  A(88,65,89)           107.9468         D2E/DX2 =    0.0563             !
 ! A159  A(64,66,80)           143.6389         D2E/DX2 =    0.0206             !
 ! A160  A(69,68,70)           110.3898         D2E/DX2 =    0.0565             !
 ! A161  A(69,68,71)           110.1583         D2E/DX2 =    0.056              !
 ! A162  A(69,68,73)           115.6329         D2E/DX2 =    0.2161             !
 ! A163  A(70,68,71)           107.9966         D2E/DX2 =    0.0192             !
 ! A164  A(70,68,73)           106.4256         D2E/DX2 =    0.0693             !
 ! A165  A(71,68,73)           105.8765         D2E/DX2 =    0.0664             !
 ! A166  A(68,69,84)           111.968          D2E/DX2 =    0.1103             !
 ! A167  A(68,69,85)           107.8821         D2E/DX2 =    0.1032             !
 ! A168  A(68,69,86)           112.7879         D2E/DX2 =    0.1108             !
 ! A169  A(84,69,85)           108.0574         D2E/DX2 =    0.0508             !
 ! A170  A(84,69,86)           107.5703         D2E/DX2 =    0.0556             !
 ! A171  A(85,69,86)           108.4277         D2E/DX2 =    0.051              !
 ! A172  A(42,72,48)           110.7081         D2E/DX2 =    0.0222             !
 ! A173  A(42,72,52)           112.9442         D2E/DX2 =    0.0359             !
 ! A174  A(42,72,56)           108.1061         D2E/DX2 =    0.0196             !
 ! A175  A(48,72,52)           109.2437         D2E/DX2 =    0.0335             !
 ! A176  A(48,72,56)           107.3229         D2E/DX2 =    0.0311             !
 ! A177  A(52,72,56)           108.3267         D2E/DX2 =    0.0341             !
 ! A178  A(45,73,60)           111.1368         D2E/DX2 =    0.0321             !
 ! A179  A(45,73,64)           107.8931         D2E/DX2 =    0.0234             !
 ! A180  A(45,73,68)           112.7656         D2E/DX2 =    0.0399             !
 ! A181  A(60,73,64)           107.2245         D2E/DX2 =    0.038              !
 ! A182  A(60,73,68)           109.204          D2E/DX2 =    0.0384             !
 ! A183  A(64,73,68)           108.4217         D2E/DX2 =    0.0367             !
 ! A184  A(75,74,76)           129.5783         D2E/DX2 =    0.0923             !
 ! A185  A(75,74,77)           114.006          D2E/DX2 =    0.1904             !
 ! A186  A(76,74,77)           116.4019         D2E/DX2 =    0.1909             !
 ! A187  A(40,75,44)            62.8033         D2E/DX2 =    0.0127             !
 ! A188  A(40,75,58)            96.1605         D2E/DX2 =    0.0204             !
 ! A189  A(40,75,74)           159.0284         D2E/DX2 =    0.0147             !
 ! A190  A(44,75,58)            58.1308         D2E/DX2 =    0.0092             !
 ! A191  A(44,75,74)           135.3962         D2E/DX2 =    0.0095             !
 ! A192  A(58,75,74)           103.1556         D2E/DX2 =    0.0147             !
 ! A193  A(63,76,74)           125.5401         D2E/DX2 =    0.0458             !
 ! A194  A(74,77,78)           104.9375         D2E/DX2 =    0.1759             !
 ! A195  A(80,79,81)           129.4684         D2E/DX2 =    0.0676             !
 ! A196  A(80,79,82)           114.2839         D2E/DX2 =    0.181              !
 ! A197  A(81,79,82)           116.2292         D2E/DX2 =    0.1842             !
 ! A198  A(31,80,47)            61.5471         D2E/DX2 =    0.0124             !
 ! A199  A(31,80,66)            96.9136         D2E/DX2 =    0.0225             !
 ! A200  A(31,80,79)           160.9969         D2E/DX2 =    0.0161             !
 ! A201  A(47,80,66)            58.6436         D2E/DX2 =    0.0098             !
 ! A202  A(47,80,79)           130.7931         D2E/DX2 =    0.0099             !
 ! A203  A(66,80,79)           102.0506         D2E/DX2 =    0.015              !
 ! A204  A(43,81,51)            60.0828         D2E/DX2 =    0.0112             !
 ! A205  A(43,81,79)            85.3586         D2E/DX2 =    0.027              !
 ! A206  A(51,81,79)           135.7811         D2E/DX2 =    0.0213             !
 ! A207  A(79,82,83)           104.9593         D2E/DX2 =    0.1753             !
 ! D1    D(3,1,2,6)            177.2584         D2E/DX2 =    0.0142             !
 ! D2    D(3,1,2,7)            -60.1123         D2E/DX2 =    0.0145             !
 ! D3    D(3,1,2,8)             56.0493         D2E/DX2 =    0.0146             !
 ! D4    D(4,1,2,6)            -62.3337         D2E/DX2 =    0.0142             !
 ! D5    D(4,1,2,7)             60.2955         D2E/DX2 =    0.0152             !
 ! D6    D(4,1,2,8)            176.4571         D2E/DX2 =    0.0145             !
 ! D7    D(5,1,2,6)             57.3592         D2E/DX2 =    0.0138             !
 ! D8    D(5,1,2,7)            179.9885         D2E/DX2 =    0.0145             !
 ! D9    D(5,1,2,8)            -63.8499         D2E/DX2 =    0.0151             !
 ! D10   D(1,2,6,9)           -177.038          D2E/DX2 =    0.0135             !
 ! D11   D(1,2,6,10)           -60.0808         D2E/DX2 =    0.0126             !
 ! D12   D(1,2,6,32)            56.9484         D2E/DX2 =    0.0144             !
 ! D13   D(7,2,6,9)             60.0208         D2E/DX2 =    0.0131             !
 ! D14   D(7,2,6,10)           176.978          D2E/DX2 =    0.0133             !
 ! D15   D(7,2,6,32)           -65.9928         D2E/DX2 =    0.0137             !
 ! D16   D(8,2,6,9)            -55.1681         D2E/DX2 =    0.0139             !
 ! D17   D(8,2,6,10)            61.7891         D2E/DX2 =    0.0135             !
 ! D18   D(8,2,6,32)           178.8183         D2E/DX2 =    0.0147             !
 ! D19   D(2,6,9,11)           -77.7796         D2E/DX2 =    0.0169             !
 ! D20   D(2,6,9,12)            36.8548         D2E/DX2 =    0.0175             !
 ! D21   D(2,6,9,13)           157.1686         D2E/DX2 =    0.0205             !
 ! D22   D(10,6,9,11)          165.5374         D2E/DX2 =    0.0136             !
 ! D23   D(10,6,9,12)          -79.8282         D2E/DX2 =    0.014              !
 ! D24   D(10,6,9,13)           40.4856         D2E/DX2 =    0.0141             !
 ! D25   D(32,6,9,11)           47.479          D2E/DX2 =    0.0174             !
 ! D26   D(32,6,9,12)          162.1134         D2E/DX2 =    0.0181             !
 ! D27   D(32,6,9,13)          -77.5727         D2E/DX2 =    0.0172             !
 ! D28   D(2,6,32,33)         -120.6035         D2E/DX2 =    0.0169             !
 ! D29   D(2,6,32,34)           62.1292         D2E/DX2 =    0.0162             !
 ! D30   D(9,6,32,33)          114.756          D2E/DX2 =    0.0167             !
 ! D31   D(9,6,32,34)          -62.5113         D2E/DX2 =    0.0164             !
 ! D32   D(10,6,32,33)          -3.5675         D2E/DX2 =    0.0112             !
 ! D33   D(10,6,32,34)         179.1652         D2E/DX2 =    0.0116             !
 ! D34   D(6,9,13,14)         -176.1163         D2E/DX2 =    0.0195             !
 ! D35   D(6,9,13,15)          -59.6421         D2E/DX2 =    0.0139             !
 ! D36   D(6,9,13,22)           58.3291         D2E/DX2 =    0.0153             !
 ! D37   D(11,9,13,14)          58.9728         D2E/DX2 =    0.0165             !
 ! D38   D(11,9,13,15)         175.447          D2E/DX2 =    0.0138             !
 ! D39   D(11,9,13,22)         -66.5818         D2E/DX2 =    0.0175             !
 ! D40   D(12,9,13,14)         -55.2436         D2E/DX2 =    0.0172             !
 ! D41   D(12,9,13,15)          61.2306         D2E/DX2 =    0.014              !
 ! D42   D(12,9,13,22)         179.2018         D2E/DX2 =    0.0173             !
 ! D43   D(9,13,14,16)         -63.4897         D2E/DX2 =    0.0136             !
 ! D44   D(9,13,14,17)          51.8266         D2E/DX2 =    0.0139             !
 ! D45   D(9,13,14,18)         173.9515         D2E/DX2 =    0.0136             !
 ! D46   D(15,13,14,16)       -179.7838         D2E/DX2 =    0.0136             !
 ! D47   D(15,13,14,17)        -64.4676         D2E/DX2 =    0.0135             !
 ! D48   D(15,13,14,18)         57.6574         D2E/DX2 =    0.0126             !
 ! D49   D(22,13,14,16)         63.0866         D2E/DX2 =    0.0142             !
 ! D50   D(22,13,14,17)        178.4029         D2E/DX2 =    0.0149             !
 ! D51   D(22,13,14,18)        -59.4722         D2E/DX2 =    0.0146             !
 ! D52   D(9,13,22,23)        -120.8682         D2E/DX2 =    0.0158             !
 ! D53   D(9,13,22,24)          56.1455         D2E/DX2 =    0.016              !
 ! D54   D(14,13,22,23)        114.3758         D2E/DX2 =    0.0162             !
 ! D55   D(14,13,22,24)        -68.6105         D2E/DX2 =    0.0169             !
 ! D56   D(15,13,22,23)         -2.912          D2E/DX2 =    0.0104             !
 ! D57   D(15,13,22,24)        174.1017         D2E/DX2 =    0.0117             !
 ! D58   D(13,14,18,19)       -178.1237         D2E/DX2 =    0.0142             !
 ! D59   D(13,14,18,20)        -58.2133         D2E/DX2 =    0.0138             !
 ! D60   D(13,14,18,21)         61.5776         D2E/DX2 =    0.0142             !
 ! D61   D(16,14,18,19)         59.7371         D2E/DX2 =    0.0145             !
 ! D62   D(16,14,18,20)        179.6474         D2E/DX2 =    0.0145             !
 ! D63   D(16,14,18,21)        -60.5616         D2E/DX2 =    0.0152             !
 ! D64   D(17,14,18,19)        -56.6019         D2E/DX2 =    0.0146             !
 ! D65   D(17,14,18,20)         63.3085         D2E/DX2 =    0.0151             !
 ! D66   D(17,14,18,21)       -176.9006         D2E/DX2 =    0.0145             !
 ! D67   D(13,22,23,25)        174.3147         D2E/DX2 =    0.0136             !
 ! D68   D(13,22,23,26)         -2.4757         D2E/DX2 =    0.0092             !
 ! D69   D(24,22,23,25)         -2.7901         D2E/DX2 =    0.0093             !
 ! D70   D(24,22,23,26)       -179.5805         D2E/DX2 =    0.0071             !
 ! D71   D(13,22,24,27)       -173.7243         D2E/DX2 =    0.0142             !
 ! D72   D(13,22,24,28)          1.8375         D2E/DX2 =    0.0092             !
 ! D73   D(23,22,24,27)          3.3883         D2E/DX2 =    0.0095             !
 ! D74   D(23,22,24,28)        178.9501         D2E/DX2 =    0.0073             !
 ! D75   D(22,23,25,29)          0.6548         D2E/DX2 =    0.0093             !
 ! D76   D(22,23,25,30)       -175.8725         D2E/DX2 =    0.0094             !
 ! D77   D(26,23,25,29)        177.4499         D2E/DX2 =    0.0098             !
 ! D78   D(26,23,25,30)          0.9226         D2E/DX2 =    0.0092             !
 ! D79   D(22,24,27,29)         -1.8616         D2E/DX2 =    0.0084             !
 ! D80   D(22,24,27,31)        173.5928         D2E/DX2 =    0.0118             !
 ! D81   D(28,24,27,29)       -177.4728         D2E/DX2 =    0.0093             !
 ! D82   D(28,24,27,31)         -2.0184         D2E/DX2 =    0.0093             !
 ! D83   D(23,25,29,27)          0.9515         D2E/DX2 =    0.0086             !
 ! D84   D(23,25,29,45)       -170.616          D2E/DX2 =    0.0118             !
 ! D85   D(30,25,29,27)        177.4259         D2E/DX2 =    0.0072             !
 ! D86   D(30,25,29,45)          5.8584         D2E/DX2 =    0.0084             !
 ! D87   D(24,27,29,25)         -0.3577         D2E/DX2 =    0.0075             !
 ! D88   D(24,27,29,45)        171.6559         D2E/DX2 =    0.0096             !
 ! D89   D(31,27,29,25)       -175.844          D2E/DX2 =    0.0068             !
 ! D90   D(31,27,29,45)         -3.8304         D2E/DX2 =    0.0075             !
 ! D91   D(24,27,31,80)       -163.4269         D2E/DX2 =    0.0089             !
 ! D92   D(29,27,31,80)         12.109          D2E/DX2 =    0.0043             !
 ! D93   D(25,29,45,46)         35.7927         D2E/DX2 =    0.0123             !
 ! D94   D(25,29,45,47)        154.016          D2E/DX2 =    0.0075             !
 ! D95   D(25,29,45,73)        -88.1487         D2E/DX2 =    0.0139             !
 ! D96   D(27,29,45,46)       -135.7603         D2E/DX2 =    0.0131             !
 ! D97   D(27,29,45,47)        -17.537          D2E/DX2 =    0.0074             !
 ! D98   D(27,29,45,73)        100.2983         D2E/DX2 =    0.0148             !
 ! D99   D(27,31,80,47)         -0.6614         D2E/DX2 =    0.0053             !
 ! D100  D(27,31,80,66)        -49.2172         D2E/DX2 =    0.0064             !
 ! D101  D(27,31,80,79)        134.4582         D2E/DX2 =    0.0033             !
 ! D102  D(6,32,33,35)        -174.6187         D2E/DX2 =    0.0147             !
 ! D103  D(6,32,33,36)           1.39           D2E/DX2 =    0.009              !
 ! D104  D(34,32,33,35)          2.7436         D2E/DX2 =    0.0098             !
 ! D105  D(34,32,33,36)        178.7523         D2E/DX2 =    0.0073             !
 ! D106  D(6,32,34,37)         175.0888         D2E/DX2 =    0.0128             !
 ! D107  D(6,32,34,38)          -1.8904         D2E/DX2 =    0.0093             !
 ! D108  D(33,32,34,37)         -2.2648         D2E/DX2 =    0.0088             !
 ! D109  D(33,32,34,38)       -179.2439         D2E/DX2 =    0.0072             !
 ! D110  D(32,33,35,39)         -1.8295         D2E/DX2 =    0.0088             !
 ! D111  D(32,33,35,40)        174.1417         D2E/DX2 =    0.0133             !
 ! D112  D(36,33,35,39)       -177.8496         D2E/DX2 =    0.009              !
 ! D113  D(36,33,35,40)         -1.8783         D2E/DX2 =    0.009              !
 ! D114  D(32,34,37,39)          0.8665         D2E/DX2 =    0.0093             !
 ! D115  D(32,34,37,41)       -175.9335         D2E/DX2 =    0.0091             !
 ! D116  D(38,34,37,39)        177.8765         D2E/DX2 =    0.0099             !
 ! D117  D(38,34,37,41)          1.0765         D2E/DX2 =    0.0092             !
 ! D118  D(33,35,39,37)          0.3368         D2E/DX2 =    0.0071             !
 ! D119  D(33,35,39,42)        173.1771         D2E/DX2 =    0.0091             !
 ! D120  D(40,35,39,37)       -175.6598         D2E/DX2 =    0.007              !
 ! D121  D(40,35,39,42)         -2.8196         D2E/DX2 =    0.0072             !
 ! D122  D(33,35,40,75)       -161.9773         D2E/DX2 =    0.008              !
 ! D123  D(39,35,40,75)         14.0601         D2E/DX2 =    0.0035             !
 ! D124  D(34,37,39,35)          0.1324         D2E/DX2 =    0.0086             !
 ! D125  D(34,37,39,42)       -172.4128         D2E/DX2 =    0.0118             !
 ! D126  D(41,37,39,35)        176.8935         D2E/DX2 =    0.0071             !
 ! D127  D(41,37,39,42)          4.3483         D2E/DX2 =    0.0083             !
 ! D128  D(35,39,42,43)       -139.2786         D2E/DX2 =    0.0109             !
 ! D129  D(35,39,42,44)        -20.0602         D2E/DX2 =    0.007              !
 ! D130  D(35,39,42,72)         98.0301         D2E/DX2 =    0.0123             !
 ! D131  D(37,39,42,43)         33.1953         D2E/DX2 =    0.01               !
 ! D132  D(37,39,42,44)        152.4137         D2E/DX2 =    0.0073             !
 ! D133  D(37,39,42,72)        -89.496          D2E/DX2 =    0.0116             !
 ! D134  D(35,40,75,44)         -3.0832         D2E/DX2 =    0.0044             !
 ! D135  D(35,40,75,58)        -52.3511         D2E/DX2 =    0.0057             !
 ! D136  D(35,40,75,74)        150.5454         D2E/DX2 =    0.0038             !
 ! D137  D(39,42,43,81)       -165.7623         D2E/DX2 =    0.0163             !
 ! D138  D(44,42,43,81)         75.9248         D2E/DX2 =    0.0089             !
 ! D139  D(72,42,43,81)        -36.3963         D2E/DX2 =    0.0074             !
 ! D140  D(39,42,44,75)         60.9249         D2E/DX2 =    0.0085             !
 ! D141  D(43,42,44,75)       -178.5918         D2E/DX2 =    0.0133             !
 ! D142  D(72,42,44,75)        -65.4245         D2E/DX2 =    0.0104             !
 ! D143  D(39,42,72,48)        105.4803         D2E/DX2 =    0.0203             !
 ! D144  D(39,42,72,52)        -17.384          D2E/DX2 =    0.0187             !
 ! D145  D(39,42,72,56)       -137.2287         D2E/DX2 =    0.0186             !
 ! D146  D(43,42,72,48)        -19.6964         D2E/DX2 =    0.0118             !
 ! D147  D(43,42,72,52)       -142.5607         D2E/DX2 =    0.019              !
 ! D148  D(43,42,72,56)         97.5946         D2E/DX2 =    0.0161             !
 ! D149  D(44,42,72,48)       -134.9679         D2E/DX2 =    0.0157             !
 ! D150  D(44,42,72,52)        102.1678         D2E/DX2 =    0.0175             !
 ! D151  D(44,42,72,56)        -17.6769         D2E/DX2 =    0.0115             !
 ! D152  D(42,43,81,51)         37.0435         D2E/DX2 =    0.007              !
 ! D153  D(42,43,81,79)       -114.1555         D2E/DX2 =    0.007              !
 ! D154  D(42,44,75,40)        -48.3337         D2E/DX2 =    0.0057             !
 ! D155  D(42,44,75,58)         69.1525         D2E/DX2 =    0.0086             !
 ! D156  D(42,44,75,74)        144.7514         D2E/DX2 =    0.0065             !
 ! D157  D(29,45,47,80)         63.347          D2E/DX2 =    0.0116             !
 ! D158  D(46,45,47,80)       -176.4977         D2E/DX2 =    0.0207             !
 ! D159  D(73,45,47,80)        -63.0664         D2E/DX2 =    0.0156             !
 ! D160  D(29,45,73,60)        104.2894         D2E/DX2 =    0.025              !
 ! D161  D(29,45,73,64)       -138.4248         D2E/DX2 =    0.0199             !
 ! D162  D(29,45,73,68)        -18.7144         D2E/DX2 =    0.0197             !
 ! D163  D(46,45,73,60)        -22.0079         D2E/DX2 =    0.0166             !
 ! D164  D(46,45,73,64)         95.278          D2E/DX2 =    0.0156             !
 ! D165  D(46,45,73,68)       -145.0116         D2E/DX2 =    0.0176             !
 ! D166  D(47,45,73,60)       -136.7325         D2E/DX2 =    0.019              !
 ! D167  D(47,45,73,64)        -19.4466         D2E/DX2 =    0.0124             !
 ! D168  D(47,45,73,68)        100.2637         D2E/DX2 =    0.0177             !
 ! D169  D(45,47,80,31)        -52.3565         D2E/DX2 =    0.0082             !
 ! D170  D(45,47,80,66)         67.0191         D2E/DX2 =    0.0104             !
 ! D171  D(45,47,80,79)        145.311          D2E/DX2 =    0.0084             !
 ! D172  D(49,48,50,96)         71.3823         D2E/DX2 =    0.0136             !
 ! D173  D(49,48,50,97)        -48.0975         D2E/DX2 =    0.0133             !
 ! D174  D(49,48,50,98)       -164.0828         D2E/DX2 =    0.0146             !
 ! D175  D(51,48,50,96)       -168.478          D2E/DX2 =    0.0113             !
 ! D176  D(51,48,50,97)         72.0422         D2E/DX2 =    0.0119             !
 ! D177  D(51,48,50,98)        -43.9431         D2E/DX2 =    0.0126             !
 ! D178  D(72,48,50,96)        -49.0891         D2E/DX2 =    0.0119             !
 ! D179  D(72,48,50,97)       -168.5689         D2E/DX2 =    0.0119             !
 ! D180  D(72,48,50,98)         75.4458         D2E/DX2 =    0.0131             !
 ! D181  D(49,48,51,81)        167.0377         D2E/DX2 =    0.0198             !
 ! D182  D(50,48,51,81)         45.9698         D2E/DX2 =    0.0414             !
 ! D183  D(72,48,51,81)        -79.6319         D2E/DX2 =    0.0139             !
 ! D184  D(49,48,72,42)        173.4058         D2E/DX2 =    0.0117             !
 ! D185  D(49,48,72,52)        -61.6071         D2E/DX2 =    0.016              !
 ! D186  D(49,48,72,56)         55.6349         D2E/DX2 =    0.0132             !
 ! D187  D(50,48,72,42)        -63.0318         D2E/DX2 =    0.0127             !
 ! D188  D(50,48,72,52)         61.9552         D2E/DX2 =    0.0179             !
 ! D189  D(50,48,72,56)        179.1972         D2E/DX2 =    0.0151             !
 ! D190  D(51,48,72,42)         57.0839         D2E/DX2 =    0.0096             !
 ! D191  D(51,48,72,52)       -177.9291         D2E/DX2 =    0.0179             !
 ! D192  D(51,48,72,56)        -60.6871         D2E/DX2 =    0.013              !
 ! D193  D(48,51,81,43)         41.1799         D2E/DX2 =    0.0162             !
 ! D194  D(48,51,81,79)         84.6944         D2E/DX2 =    0.0178             !
 ! D195  D(54,52,53,99)         43.0589         D2E/DX2 =    0.0156             !
 ! D196  D(54,52,53,100)       -76.6073         D2E/DX2 =    0.0166             !
 ! D197  D(54,52,53,101)       161.875          D2E/DX2 =    0.0167             !
 ! D198  D(55,52,53,99)        -76.1272         D2E/DX2 =    0.0156             !
 ! D199  D(55,52,53,100)       164.2067         D2E/DX2 =    0.016              !
 ! D200  D(55,52,53,101)        42.6889         D2E/DX2 =    0.016              !
 ! D201  D(72,52,53,99)        163.9682         D2E/DX2 =    0.0156             !
 ! D202  D(72,52,53,100)        44.302          D2E/DX2 =    0.0149             !
 ! D203  D(72,52,53,101)       -77.2157         D2E/DX2 =    0.0162             !
 ! D204  D(53,52,72,42)        -76.6603         D2E/DX2 =    0.0169             !
 ! D205  D(53,52,72,48)        159.6641         D2E/DX2 =    0.0187             !
 ! D206  D(53,52,72,56)         43.0576         D2E/DX2 =    0.0177             !
 ! D207  D(54,52,72,42)         46.3323         D2E/DX2 =    0.0124             !
 ! D208  D(54,52,72,48)        -77.3433         D2E/DX2 =    0.0155             !
 ! D209  D(54,52,72,56)        166.0502         D2E/DX2 =    0.0147             !
 ! D210  D(55,52,72,42)        161.1517         D2E/DX2 =    0.0141             !
 ! D211  D(55,52,72,48)         37.4761         D2E/DX2 =    0.0152             !
 ! D212  D(55,52,72,56)        -79.1304         D2E/DX2 =    0.0143             !
 ! D213  D(58,56,57,93)        164.2712         D2E/DX2 =    0.0131             !
 ! D214  D(58,56,57,94)         44.5671         D2E/DX2 =    0.0125             !
 ! D215  D(58,56,57,95)        -73.4048         D2E/DX2 =    0.012              !
 ! D216  D(59,56,57,93)         43.7947         D2E/DX2 =    0.0136             !
 ! D217  D(59,56,57,94)        -75.9093         D2E/DX2 =    0.0138             !
 ! D218  D(59,56,57,95)        166.1187         D2E/DX2 =    0.014              !
 ! D219  D(72,56,57,93)        -76.5085         D2E/DX2 =    0.0133             !
 ! D220  D(72,56,57,94)        163.7874         D2E/DX2 =    0.0126             !
 ! D221  D(72,56,57,95)         45.8155         D2E/DX2 =    0.0124             !
 ! D222  D(57,56,58,75)         59.4781         D2E/DX2 =    0.0439             !
 ! D223  D(59,56,58,75)       -179.2054         D2E/DX2 =    0.0204             !
 ! D224  D(72,56,58,75)        -65.1321         D2E/DX2 =    0.0137             !
 ! D225  D(57,56,72,42)        -64.4126         D2E/DX2 =    0.0167             !
 ! D226  D(57,56,72,48)         55.0389         D2E/DX2 =    0.0183             !
 ! D227  D(57,56,72,52)        172.8791         D2E/DX2 =    0.0206             !
 ! D228  D(58,56,72,42)         56.4216         D2E/DX2 =    0.009              !
 ! D229  D(58,56,72,48)        175.8731         D2E/DX2 =    0.0138             !
 ! D230  D(58,56,72,52)        -66.2867         D2E/DX2 =    0.0201             !
 ! D231  D(59,56,72,42)        172.7442         D2E/DX2 =    0.0121             !
 ! D232  D(59,56,72,48)        -67.8043         D2E/DX2 =    0.0138             !
 ! D233  D(59,56,72,52)         50.0359         D2E/DX2 =    0.0178             !
 ! D234  D(56,58,75,40)         74.8869         D2E/DX2 =    0.0114             !
 ! D235  D(56,58,75,44)         22.3611         D2E/DX2 =    0.0125             !
 ! D236  D(56,58,75,74)       -113.3347         D2E/DX2 =    0.0101             !
 ! D237  D(61,60,62,90)       -164.0251         D2E/DX2 =    0.0144             !
 ! D238  D(61,60,62,91)         71.3326         D2E/DX2 =    0.0135             !
 ! D239  D(61,60,62,92)        -48.2553         D2E/DX2 =    0.0132             !
 ! D240  D(63,60,62,90)        -44.0671         D2E/DX2 =    0.0134             !
 ! D241  D(63,60,62,91)       -168.7094         D2E/DX2 =    0.0123             !
 ! D242  D(63,60,62,92)         71.7027         D2E/DX2 =    0.0126             !
 ! D243  D(73,60,62,90)         75.6279         D2E/DX2 =    0.0137             !
 ! D244  D(73,60,62,91)        -49.0144         D2E/DX2 =    0.0129             !
 ! D245  D(73,60,62,92)       -168.6023         D2E/DX2 =    0.013              !
 ! D246  D(61,60,63,76)        154.3977         D2E/DX2 =    0.017              !
 ! D247  D(62,60,63,76)         33.609          D2E/DX2 =    0.0346             !
 ! D248  D(73,60,63,76)        -92.1901         D2E/DX2 =    0.0193             !
 ! D249  D(61,60,73,45)        173.7967         D2E/DX2 =    0.0126             !
 ! D250  D(61,60,73,64)         56.1042         D2E/DX2 =    0.0133             !
 ! D251  D(61,60,73,68)        -61.175          D2E/DX2 =    0.0162             !
 ! D252  D(62,60,73,45)        -62.7905         D2E/DX2 =    0.0129             !
 ! D253  D(62,60,73,64)        179.517          D2E/DX2 =    0.0147             !
 ! D254  D(62,60,73,68)         62.2378         D2E/DX2 =    0.0176             !
 ! D255  D(63,60,73,45)         57.3304         D2E/DX2 =    0.0129             !
 ! D256  D(63,60,73,64)        -60.3621         D2E/DX2 =    0.0142             !
 ! D257  D(63,60,73,68)       -177.6413         D2E/DX2 =    0.0199             !
 ! D258  D(60,63,76,74)         89.6974         D2E/DX2 =    0.0233             !
 ! D259  D(66,64,65,87)         48.3629         D2E/DX2 =    0.0126             !
 ! D260  D(66,64,65,88)        -69.1068         D2E/DX2 =    0.0122             !
 ! D261  D(66,64,65,89)        168.4225         D2E/DX2 =    0.0133             !
 ! D262  D(67,64,65,87)        -72.1829         D2E/DX2 =    0.0139             !
 ! D263  D(67,64,65,88)        170.3474         D2E/DX2 =    0.0147             !
 ! D264  D(67,64,65,89)         47.8767         D2E/DX2 =    0.0136             !
 ! D265  D(73,64,65,87)        167.4454         D2E/DX2 =    0.0127             !
 ! D266  D(73,64,65,88)         49.9757         D2E/DX2 =    0.0129             !
 ! D267  D(73,64,65,89)        -72.495          D2E/DX2 =    0.0134             !
 ! D268  D(65,64,66,80)         56.9616         D2E/DX2 =    0.0475             !
 ! D269  D(67,64,66,80)        178.4534         D2E/DX2 =    0.0211             !
 ! D270  D(73,64,66,80)        -67.5296         D2E/DX2 =    0.0143             !
 ! D271  D(65,64,73,45)        -61.7704         D2E/DX2 =    0.018              !
 ! D272  D(65,64,73,60)         58.0187         D2E/DX2 =    0.0205             !
 ! D273  D(65,64,73,68)        175.8091         D2E/DX2 =    0.0209             !
 ! D274  D(66,64,73,45)         58.7893         D2E/DX2 =    0.0098             !
 ! D275  D(66,64,73,60)        178.5784         D2E/DX2 =    0.0169             !
 ! D276  D(66,64,73,68)        -63.6312         D2E/DX2 =    0.021              !
 ! D277  D(67,64,73,45)        175.1528         D2E/DX2 =    0.0132             !
 ! D278  D(67,64,73,60)        -65.0582         D2E/DX2 =    0.0158             !
 ! D279  D(67,64,73,68)         52.7322         D2E/DX2 =    0.0182             !
 ! D280  D(64,66,80,31)         74.9337         D2E/DX2 =    0.0125             !
 ! D281  D(64,66,80,47)         24.4202         D2E/DX2 =    0.0142             !
 ! D282  D(64,66,80,79)       -106.2893         D2E/DX2 =    0.0113             !
 ! D283  D(70,68,69,84)        161.8514         D2E/DX2 =    0.0168             !
 ! D284  D(70,68,69,85)         43.0777         D2E/DX2 =    0.0157             !
 ! D285  D(70,68,69,86)        -76.6463         D2E/DX2 =    0.0168             !
 ! D286  D(71,68,69,84)         42.6704         D2E/DX2 =    0.0161             !
 ! D287  D(71,68,69,85)        -76.1033         D2E/DX2 =    0.0156             !
 ! D288  D(71,68,69,86)        164.1727         D2E/DX2 =    0.016              !
 ! D289  D(73,68,69,84)        -77.288          D2E/DX2 =    0.0162             !
 ! D290  D(73,68,69,85)        163.9382         D2E/DX2 =    0.0156             !
 ! D291  D(73,68,69,86)         44.2142         D2E/DX2 =    0.0149             !
 ! D292  D(69,68,73,45)        -75.6857         D2E/DX2 =    0.0183             !
 ! D293  D(69,68,73,60)        160.2394         D2E/DX2 =    0.0204             !
 ! D294  D(69,68,73,64)         43.719          D2E/DX2 =    0.0186             !
 ! D295  D(70,68,73,45)         47.2934         D2E/DX2 =    0.0134             !
 ! D296  D(70,68,73,60)        -76.7815         D2E/DX2 =    0.0175             !
 ! D297  D(70,68,73,64)        166.6981         D2E/DX2 =    0.0153             !
 ! D298  D(71,68,73,45)        162.0476         D2E/DX2 =    0.0153             !
 ! D299  D(71,68,73,60)         37.9727         D2E/DX2 =    0.0175             !
 ! D300  D(71,68,73,64)        -78.5478         D2E/DX2 =    0.0153             !
 ! D301  D(76,74,75,40)        -45.7136         D2E/DX2 =    0.0065             !
 ! D302  D(76,74,75,44)        100.0485         D2E/DX2 =    0.0092             !
 ! D303  D(76,74,75,58)        157.6926         D2E/DX2 =    0.0123             !
 ! D304  D(77,74,75,40)        135.7045         D2E/DX2 =    0.0069             !
 ! D305  D(77,74,75,44)        -78.5333         D2E/DX2 =    0.0082             !
 ! D306  D(77,74,75,58)        -20.8893         D2E/DX2 =    0.0108             !
 ! D307  D(75,74,76,63)        -52.7042         D2E/DX2 =    0.0131             !
 ! D308  D(77,74,76,63)        125.8494         D2E/DX2 =    0.0138             !
 ! D309  D(75,74,77,78)       -179.3901         D2E/DX2 =    0.013              !
 ! D310  D(76,74,77,78)          1.8302         D2E/DX2 =    0.0118             !
 ! D311  D(81,79,80,31)        -32.7792         D2E/DX2 =    0.0049             !
 ! D312  D(81,79,80,47)         92.1896         D2E/DX2 =    0.0087             !
 ! D313  D(81,79,80,66)        150.9517         D2E/DX2 =    0.0093             !
 ! D314  D(82,79,80,31)        148.8624         D2E/DX2 =    0.0058             !
 ! D315  D(82,79,80,47)        -86.1689         D2E/DX2 =    0.0081             !
 ! D316  D(82,79,80,66)        -27.4067         D2E/DX2 =    0.0095             !
 ! D317  D(80,79,81,43)        -27.9916         D2E/DX2 =    0.0143             !
 ! D318  D(80,79,81,51)        -64.7722         D2E/DX2 =    0.0101             !
 ! D319  D(82,79,81,43)        150.3403         D2E/DX2 =    0.0137             !
 ! D320  D(82,79,81,51)        113.5597         D2E/DX2 =    0.009              !
 ! D321  D(80,79,82,83)       -179.1754         D2E/DX2 =    0.0117             !
 ! D322  D(81,79,82,83)          2.2373         D2E/DX2 =    0.0107             !
 --------------------------------------------------------------------------------
 Trust Radius=3.00D-01 FncErr=1.00D-07 GrdErr=1.00D-06 EigMax=2.50D+02 EigMin=1.00D-04
 Number of steps in this run=    606 maximum allowed number of steps=    606.
 GradGradGradGradGradGradGradGradGradGradGradGradGradGradGradGradGradGrad

 Leave Link  103 at Tue May  7 19:19:16 2024, MaxMem=  2281701376 cpu:               5.2 elap:               0.3
 (Enter /packages/apps/gaussian/g16/g16/l202.exe)
 Stoichiometry    C35H58N2O6
 Framework group  C1[X(C35H58N2O6)]
 Deg. of freedom   297
 Full point group                 C1      NOp   1
 Largest Abelian subgroup         C1      NOp   1
 Largest concise Abelian subgroup C1      NOp   1
                         Standard orientation:                         
 ---------------------------------------------------------------------
 Center     Atomic      Atomic             Coordinates (Angstroms)
 Number     Number       Type             X           Y           Z
 ---------------------------------------------------------------------
      1          6           0        4.773589   -3.894021   -1.409927
      2          6           0        5.272051   -2.826069   -0.443813
      3          1           0        5.370397   -4.802770   -1.330603
      4          1           0        3.733848   -4.154059   -1.210047
      5          1           0        4.833280   -3.542911   -2.442083
      6          6           0        4.513922   -1.493170   -0.552415
      7          1           0        5.204368   -3.195790    0.583401
      8          1           0        6.331622   -2.633715   -0.628791
      9          6           0        5.127139   -0.450130    0.402763
     10          1           0        4.648001   -1.126263   -1.575481
     11          1           0        4.789054   -0.650747    1.423440
     12          1           0        6.210167   -0.598645    0.413604
     13          6           0        4.881676    1.030292    0.058511
     14          6           0        5.636127    1.932351    1.047789
     15          1           0        5.307396    1.205409   -0.935289
     16          1           0        5.231721    1.773468    2.051424
     17          1           0        6.680123    1.610859    1.082882
     18          6           0        5.569897    3.413786    0.696916
     19          1           0        6.144826    4.009996    1.405540
     20          1           0        5.974954    3.597041   -0.300422
     21          1           0        4.541466    3.775884    0.708067
     22          6           0        3.413669    1.392757   -0.014164
     23          6           0        2.856651    1.907991   -1.177225
     24          6           0        2.565729    1.162339    1.064384
     25          6           0        1.491098    2.131102   -1.283212
     26          1           0        3.491594    2.091186   -2.035659
     27          6           0        1.203690    1.370688    0.961533
     28          1           0        2.960895    0.745414    1.981823
     29          6           0        0.639998    1.856695   -0.219041
     30          1           0        1.091493    2.468842   -2.227089
     31          1           0        0.552175    1.086601    1.778485
     32          6           0        3.024858   -1.683551   -0.335365
     33          6           0        2.109613   -1.333082   -1.317687
     34          6           0        2.525610   -2.161826    0.873674
     35          6           0        0.745119   -1.399547   -1.089024
     36          1           0        2.466840   -0.939114   -2.260326
     37          6           0        1.162823   -2.239795    1.105144
     38          1           0        3.207738   -2.434321    1.669828
     39          6           0        0.246788   -1.858306    0.127384
     40          1           0        0.054774   -1.031048   -1.837541
     41          1           0        0.816614   -2.553146    2.078268
     42          6           0       -1.234583   -1.767589    0.388637
     43          1           0       -1.432010   -1.456701    1.411081
     44          1           0       -1.641893   -1.026591   -0.291693
     45          6           0       -0.863639    1.880710   -0.332495
     46          1           0       -1.193727    1.515664   -1.302847
     47          1           0       -1.249289    1.214351    0.433154
     48          6           0       -2.493537   -3.659792    1.467558
     49          1           0       -3.184637   -4.460990    1.204758
[...]
 0011179,-0.00005778,0.00000154,0.00001288,-0.00002861,0.00002562,-0.00
 004821,0.00003162,-0.00000299,-0.00002450,-0.00004905,-0.00000834,0.00
 001449,-0.00000517,0.00001109,0.00002252,0.00000144,-0.00060282,-0.002
 35108,0.00131490,-0.06500707,-0.30197523,0.05189972,-0.00013334,-0.000
 17300,0.00016649,0.00053613,0.00110871,-0.00035051,0.00027651,-0.00030
 439,0.00001597,0.00002158,0.00012037,-0.00012958,0.00038168,0.00088349
 ,-0.00060654,0.00002064,0.00000018,-0.00002657,-0.00000837,0.00000648,
 -0.00000586,0.00000354,0.00001099,0.00000924,0.00000651,-0.00000665,0.
 00000830,-0.00000910,-0.00007214,-0.00005713,-0.00000242,-0.00001108,-
 0.00000260,-0.00000277,-0.00001087,0.00000685,-0.00000108,0.00001236,-
 0.00000759,0.00000315,0.00000812,0.00000008,-0.00002780,-0.00001556,-0
 .00001083,0.00000728,0.00000376,-0.00000095,-0.00000042,0.00000597,-0.
 00000004,0.00000471,0.00000269,0.00000238,0.00037945,0.00041682,0.0000
 0355,0.00003966,0.00002140,0.00003085,0.00185358,-0.00085587,0.0013260
 0,-0.00103301,-0.00088687,-0.00027060,-0.00041209,0.00087821,-0.000406
 92,-0.00065863,-0.00020964,-0.00028906,-0.00000425,-0.00000257,0.00000
 943,0.00004215,0.00010345,-0.00003441,-0.00002381,-0.00004978,0.000056
 59,-0.00001999,-0.00007996,0.00000737,0.00000694,-0.00002290,0.0000090
 2,-0.00000077,0.00000449,-0.00000204,-0.00000061,-0.00000165,-0.000000
 35,0.00000265,0.00000257,0.00000444,-0.00000293,0.00000080,-0.00000085
 ,-0.00000881,0.00001398,0.00001528,0.00001438,0.00000585,-0.00004940,0
 .00001367,-0.00001384,-0.00000692,-0.00002167,-0.00001238,-0.00000166,
 0.00000754,0.00001311,0.00000510,-0.00000240,-0.00000486,0.00000007,0.
 00003347,-0.00004838,-0.00004119,0.00001259,0.00000887,-0.00000993,0.0
 0000675,-0.00001044,-0.00002744,-0.00000481,-0.00001002,0.00000147,0.0
 0000030,-0.00000016,-0.00000432,-0.00001055,0.00000268,0.00000163,-0.0
 0489762,-0.01498888,0.00316001,0.07294767,0.32575135,-0.00000378,-0.00
 000697,0.00001308,0.00001948,0.00002911,-0.00000455,0.00000869,-0.0000
 0773,-0.00000386,-0.00000042,0.00001476,0.00000503,0.00000358,0.000004
 68,-0.00000659,-0.00002857,-0.00002980,0.00005034,-0.00000954,0.000000
 91,-0.00000503,0.00002024,-0.00001152,-0.00000545,0.00001526,-0.000021
 02,-0.00001355,0.00001016,0.00000658,-0.00001184,-0.00000812,-0.000002
 81,-0.00000991,0.00001862,0.00001270,0.00000289,-0.00000166,-0.0000123
 7,0.00000695,-0.00000604,0.00000257,-0.00000648,0.00000092,0.00000291,
 -0.00000381,-0.00000040,0.00000004,-0.00000092,0.00000104,-0.00000073,
 0.00000003,0.00000183,0.00000153,0.00000609,0.00000257,0.00000450,0.00
 000176,0.00000036,0.00000004,-0.00000290,-0.00000131,-0.00000172,-0.00
 000115,-0.00000779,0.00000067,-0.00000077,-0.00000775,0.00000840,0.000
 00525,-0.00000047,0.00000860,0.00000132,0.00000094,0.00000130,0.000021
 67,0.00000457,-0.00000298,-0.00000083,-0.00000186,0.00000572,-0.000000
 77,-0.00000439,-0.00000528,-0.00001004,0.00000862,0.00000849,-0.000010
 08,0.00000141,0.00000375,-0.00000347,0.00000512,-0.00001034,-0.0000086
 6,0.00007047,-0.00011885,0.00016542,-0.00016377,-0.00001036,0.00020747
 ,0.00027927,0.00001842,-0.00005745,-0.00033126,-0.00005590,-0.00067164
 ,0.00006096,0.00004937,-0.00001838,-0.00018056,0.00005623,-0.00011636,
 0.00002118,0.00000240,0.00001026,-0.00037556,-0.00010732,-0.00033595,-
 0.00034352,-0.00078110,0.00060851,0.00002442,0.00001064,0.00004808,0.0
 0033881,-0.00007880,-0.00048092,0.00002514,-0.00015664,0.00001828,0.00
 013312,-0.00046331,-0.00034586,0.00002477,-0.00004443,0.00000339,0.000
 01710,0.00000821,0.00002523,0.00000562,-0.00001667,-0.00000932,0.00001
 269,0.00032090,-0.00011341,-0.00023619,-0.00015765,0.00003659,-0.00010
 774,0.00001007,0.00006138,-0.00009474,-0.00012714,0.00005783,0.0091619
 6,0.03392173,-0.00540770,0.01237049,0.04878180,-0.05988263,0.00003230,
 -0.00029161,0.00054667,-0.00045342,0.00093199,-0.00626946,0.00034021,-
 0.00013967,-0.00028364,0.00003105,-0.00010730,0.00011942,0.00106045,-0
 .00021228,-0.00010785,-0.00012098,-0.00000889,-0.00003994,0.00000535,-
 0.00001231,0.00002438,-0.00000187,0.00000096,-0.00000618,-0.00000643,0
 .00000820,-0.00000764,0.00000422,0.00002284,0.00002004,0.00000886,0.00
 000878,-0.00000703,0.00000247,-0.00000392,-0.00000472,0.00000270,-0.00
 000862,0.00000174,-0.00000402,0.00000148,0.00000138,0.00000120,0.00000
 541,-0.00000241,-0.00000230,-0.00000148,0.00000060,0.00000172,-0.00000
 780,0.00000251,-0.00000432,0.00000443,0.00000162,0.00017343,-0.0000691
 5,0.00225657,-0.00001569,0.00001418,-0.00001084,0.00002127,0.00046780,
 -0.00002227,0.00001512,-0.00019643,-0.00080604,-0.00009667,-0.00007818
 ,-0.00001771,-0.00001793,-0.00008450,-0.00011262,-0.00002884,-0.000002
 49,-0.00000473,0.00012477,0.00002016,-0.00008149,-0.00007828,0.0000157
 6,0.00006538,-0.00006564,-0.00005762,0.00006231,-0.00004459,0.00001690
 ,0.00001568,0.00000267,-0.00000036,-0.00000197,-0.00000238,0.00000210,
 0.00000030,0.00000081,-0.00000140,-0.00000162,0.00000242,-0.00000152,-
 0.00000304,0.00000147,-0.00000379,-0.00000267,0.00000437,-0.00000326,0
 .00001880,-0.00000760,0.00001029,0.00000117,0.00001039,0.00000452,0.00
 001145,-0.00000089,-0.00000890,-0.00000217,-0.00000239,0.00000727,-0.0
 0000080,-0.00004656,0.00002537,0.00003186,0.00000161,-0.00002204,-0.00
 001027,0.00000991,-0.00001325,-0.00001232,0.00015069,-0.00004283,0.000
 04137,0.00002367,-0.00004016,-0.00001433,0.00002344,-0.00002958,-0.000
 07542,-0.00470359,-0.01356860,0.00241900,-0.01452070,-0.05352228,0.066
 05244,0.00002952,0.00000646,-0.00001517,-0.00001490,-0.00000826,0.0000
 0834,-0.00001590,0.00000547,-0.00000328,-0.00000300,-0.00001593,0.0000
 1807,0.00000677,-0.00000263,-0.00000092,0.00001867,0.00001104,-0.00002
 113,0.00000685,-0.00000102,-0.00000178,-0.00001855,-0.00000185,-0.0000
 0078,-0.00000569,0.00001628,0.00000950,-0.00000230,-0.00000057,0.00000
 526,0.00000499,0.00000033,0.00000377,-0.00001224,-0.00000806,-0.000002
 04,0.00000055,0.00000969,-0.00000656,0.00000664,-0.00000266,0.00000516
 ,0.00000027,-0.00000141,0.00000275,0.00000055,-0.00000022,0.00000081,-
 0.00000119,0.00000096,0.00000036,-0.00000186,-0.00000133,-0.00000508,-
 0.00000302,-0.00000504,-0.00000291,0.00000018,0.00000030,0.00000265,0.
 00000134,0.00000168,0.00000164,0.00000826,-0.00000387,0.00000120,0.000
 00627,-0.00001052,-0.00000758,0.00000170,-0.00000896,-0.00000422,-0.00
 000163,-0.00000662,-0.00000974,0.00000014,0.00000558,0.00000104,0.0000
 0041,-0.00000644,-0.00000048,0.00000383,0.00000608,0.00000745,-0.00000
 929,-0.00000439,0.00000138,-0.00000237,0.00000482,0.00000348,-0.000007
 09,0.00000874,0.00000608,0.00006571,0.00001054,0.00003385,0.00008011,-
 0.00003372,-0.00010203,-0.00000486,0.00001218,-0.00003277,-0.00006146,
 -0.00018955,-0.00007084,-0.00000012,0.00000968,0.00000592,-0.00002723,
 -0.00001336,0.00000667,-0.00000421,0.00000209,-0.00001043,-0.00003557,
 -0.00002513,0.00012939,-0.00008880,0.00015740,-0.00006112,-0.00000926,
 0.00000739,-0.00001375,-0.00007635,0.00004400,0.00000237,-0.00000552,0
 .00000436,0.00001469,-0.00001861,0.00002382,-0.00000545,-0.00002759,0.
 00003486,0.00000445,-0.00000804,-0.00000448,-0.00000816,-0.00000523,0.
 00000467,0.00000123,-0.00001343,-0.00018521,0.00006722,0.00000572,0.00
 000357,0.00001240,-0.00000591,0.00002147,-0.00001238,0.00001021,0.0000
 3148,-0.00006055,0.00329847,0.00116864,0.00243369,-0.26019460,-0.04869
 501,-0.10440920,0.00122090,-0.00009181,0.00084795,0.00081477,0.0003963
 4,-0.00049252,-0.00073982,0.00141718,0.00103590,0.00024596,-0.00010382
 ,0.00040332,-0.00051229,0.00013441,0.00073042,-0.00032834,0.00042315,0
 .00038405,-0.00000416,0.00000639,-0.00001446,0.00000174,-0.00000307,0.
 00000161,0.00000217,-0.00000128,0.00000638,-0.00000349,-0.00000783,-0.
 00000739,-0.00001535,-0.00000809,0.00000735,0.00000235,0.00000376,-0.0
 0000081,-0.00000161,0.00000639,-0.00000157,0.00000398,-0.00000033,-0.0
 0000124,-0.00000036,-0.00000241,0.00000140,0.00000191,0.00000139,-0.00
 000040,-0.00000082,0.00000764,-0.00000162,0.00000363,-0.00000351,-0.00
 000044,0.00024872,0.00012352,-0.00033110,0.00001860,-0.00001108,0.0000
 0237,-0.00022166,-0.00014402,-0.00013854,0.00022494,-0.00003533,0.0001
 6817,0.00006090,0.00001920,0.00004741,0.00008530,0.00007089,0.00009724
 ,0.00000172,-0.00000938,-0.00001164,-0.00008155,0.00002957,0.00003414,
 0.00004955,-0.00001817,-0.00002732,0.00004172,-0.00002447,-0.00001838,
 0.00004812,-0.00003243,-0.00001264,-0.00000760,0.00000242,-0.00000163,
 0.00000278,-0.00000206,-0.00000066,-0.00000126,0.00000155,0.00000091,-
 0.00000304,0.00000117,0.00000279,0.00000113,-0.00000060,-0.00000246,-0
 .00000700,-0.00000223,-0.00000371,0.00000230,-0.00000347,0.00000098,-0
 .00000540,-0.00000142,-0.00000750,0.00000049,0.00000534,0.00000044,0.0
 0000253,-0.00000455,0.00000103,-0.00004301,0.00004777,0.00005383,0.000
 03864,-0.00004974,-0.00004116,-0.00006252,0.00004370,0.00005567,0.0000
 1513,-0.00002140,-0.00000099,0.00000523,-0.00000262,-0.00001665,-0.000
 00249,0.00000345,0.00001029,-0.01849088,-0.00567754,-0.00917226,-0.006
 60628,-0.00025853,-0.00258547,0.28112243,-0.00000942,0.00000331,0.0000
 0347,-0.00000460,-0.00001452,-0.00000671,-0.00000393,0.00000459,0.0000
 0015,-0.00000072,-0.00001212,-0.00000923,0.00000108,-0.00000216,0.0000
 0103,0.00001913,0.00000999,-0.00002099,0.00000550,-0.00000061,0.000003
 70,-0.00001054,0.00000789,0.00000685,-0.00000501,0.00001729,0.00000208
 ,-0.00000226,-0.00000196,0.00000523,0.00000441,0.00000150,0.00000605,-
 0.00001019,-0.00000894,-0.00000057,-0.00000235,0.00000873,0.00000005,0
 .00000560,-0.00000317,0.00000273,0.00000158,-0.00000153,0.00000090,-0.
 00000029,0.00000027,-0.00000009,0.00000158,0.00000062,0.00000080,-0.00
 000293,-0.00000092,-0.00000319,-0.00000134,-0.00000278,-0.00000082,0.,
 -0.00000003,0.00000117,0.00000160,0.00000001,0.00000051,0.00000834,0.0
 0000141,-0.00000008,0.00001099,-0.00001069,-0.00000203,0.00000329,-0.0
 0000507,-0.00000860,0.00000185,-0.00000732,-0.00000852,0.00000268,0.00
 000507,-0.00000079,0.00000743,-0.00000186,-0.00000100,0.00000434,0.000
 00279,0.00000888,-0.00001805,0.00000511,0.00000752,-0.00000684,0.00000
 468,0.00000451,-0.00001176,0.00000663,0.00000512,0.00001595,0.00011435
 ,-0.00011132,0.00018754,-0.00002523,-0.00010082,-0.00019721,0.00001038
 ,-0.00001527,-0.00016831,-0.00061764,0.00006983,0.00000025,-0.00002516
 ,0.00000216,0.00012370,0.00000073,0.00003984,-0.00000166,-0.00000109,-
 0.00000921,-0.00006670,0.00006909,0.00001747,-0.00022603,0.00029430,-0
 .00023422,-0.00001833,-0.00000096,-0.00003599,-0.00019300,-0.00026497,
 0.00009021,0.00002484,0.00006418,0.00000690,-0.00009215,0.00004212,-0.
 00005692,-0.00003438,0.00004443,0.00000868,-0.00003070,-0.00003584,-0.
 00002861,-0.00000829,0.00000464,-0.00000345,0.00028794,0.00001879,-0.0
 0006199,-0.00003194,0.00000428,-0.00002877,0.00000154,-0.00009955,0.00
 006540,-0.00003218,-0.00001046,-0.00002862,0.00808835,-0.00072427,0.00
 481662,-0.04875181,-0.05881984,-0.02418266,-0.00051469,0.00049426,0.00
 206891,0.00072926,0.00054119,-0.00021294,0.00001455,0.00024171,-0.0006
 6020,0.00002600,-0.00014857,0.00016416,0.00010177,-0.00127555,-0.00095
 925,0.00016272,0.00014611,-0.00029977,-0.00000596,0.00000604,-0.000011
 38,0.00000279,0.00000153,0.00000589,0.00000395,-0.00000248,0.00000922,
 -0.00000871,-0.00003897,-0.00003010,-0.00003164,-0.00001759,0.00000675
 ,0.00001192,0.00000368,-0.00000046,0.00000023,0.00000528,-0.00000347,0
 .00000810,0.00000833,-0.00000079,-0.00001139,-0.00001448,-0.00000630,0
 .00000562,0.00000360,-0.00000015,0.00000099,0.00000942,-0.00000098,0.0
 0000383,-0.00000199,-0.00000020,-0.00052288,0.00007083,-0.00019221,0.0
 0003627,0.00000388,0.00000908,-0.00043638,-0.00070369,-0.00011832,0.00
 044969,0.00039981,0.00030301,0.00012889,0.00037940,-0.00001454,0.00015
 826,0.00035677,0.00012060,0.00005837,0.00003608,0.00002928,-0.00007955
 ,-0.00003103,0.00002175,0.00006431,0.00000665,-0.00001452,0.00005255,0
 .00002090,0.00000906,0.00003503,-0.00000727,0.00000893,-0.00000395,-0.
 00000349,-0.00001505,0.00000150,-0.00000423,-0.00000177,0.00000209,0.0
 0000353,0.00000257,-0.00000633,-0.00000090,0.00000268,0.00000344,-0.00
 000394,-0.00000177,-0.00001772,-0.00000357,-0.00001284,0.00000750,-0.0
 0000850,-0.00000323,-0.00001388,-0.00000632,-0.00000739,0.00000551,0.0
 0000982,0.00000286,0.00000056,-0.00000633,-0.00000018,-0.00006611,0.00
 005067,0.00008266,0.00002877,-0.00002146,-0.00001863,-0.00002275,0.000
 03839,0.00002468,-0.00001939,0.00003707,0.00000488,-0.00000167,0.00001
 918,0.00004122,-0.00000574,0.00000747,0.00001684,0.01721863,0.00405210
 ,0.00955685,-0.02781956,-0.00413291,-0.01409378,0.05139862,0.05943110,
 -0.00000024,0.00000173,0.00000398,-0.00000092,-0.00000764,-0.00000336,
 0.00000180,0.00000117,0.00000120,-0.00000059,0.00000092,-0.00001754,-0
 .00000823,-0.00000459,0.00000567,0.00001025,0.00000177,-0.00000178,0.0
 0000330,0.00000159,0.00000446,-0.00000271,0.00000397,0.00000254,-0.000
 00285,0.00000501,0.00000292,-0.00000559,-0.00000290,0.00000428,0.00000
 139,0.00000126,0.00000231,-0.00000307,-0.00000333,-0.00000081,-0.00000
 137,0.00000320,0.00000020,0.00000203,-0.00000134,0.00000032,0.00000033
 ,-0.00000101,0.00000042,-0.00000022,0.00000032,0.00000005,0.00000075,0
 .00000029,0.00000030,-0.00000093,-0.00000019,-0.00000056,-0.00000021,-
 0.00000058,-0.00000015,0.00000001,-0.00000015,0.00000030,0.00000053,-0
 .00000021,0.00000019,0.00000116,-0.00000198,0.00000040,0.00000128,-0.0
 0000455,0.00000060,0.00000194,-0.00000158,-0.00000011,0.00000179,-0.00
 000189,0.00000079,0.00000043,0.00000031,-0.00000005,0.00000340,-0.0000
 0431,0.00000062,0.00000248,0.00000212,0.00000283,-0.00000579,-0.000002
 42,-0.00000340,-0.00000146,0.00000018,0.00000175,-0.00000423,0.0000030
 1,0.00000140,-0.00001272,0.00000752,-0.00000080,-0.00003697,0.00001924
 ,0.00004062,0.00007926,-0.00004367,0.00001290,0.00002773,0.00011962,-0
 .00006560,-0.00001206,-0.00001069,0.00000812,-0.00001880,-0.00011749,0
 .00000707,-0.00000121,0.00000741,0.00000128,0.00003416,0.00006242,0.00
 003986,0.00003355,-0.00005096,0.00002879,0.00001019,0.00002930,0.00003
 951,0.00006893,0.00014693,0.00016027,0.,0.00001281,0.00001402,-0.00004
 135,-0.00004559,-0.00002822,-0.00001194,0.00001050,0.00000146,-0.00000
 379,-0.00000918,-0.00000410,-0.00000537,0.00000156,-0.00000224,-0.0000
 4718,-0.00007188,0.00000716,0.00003288,0.00008099,-0.00004565,-0.00005
 281,0.00016654,0.00000441,0.00005400,0.00003637,-0.00001184,-0.0308456
 0,-0.00565510,-0.01488587,-0.10075044,-0.02326726,-0.09842889,0.001111
 30,0.00130862,-0.00564441,0.00036977,-0.00019828,0.00153840,-0.0007405
 7,-0.00081035,-0.00081107,0.00039446,0.00008087,0.00031637,0.00031697,
 -0.00091184,-0.00016348,0.00091614,0.00020670,-0.00061645,-0.00000006,
 -0.00000215,0.00000067,0.00000036,-0.00000076,0.00000070,0.00000044,0.
 00000056,0.00000135,-0.00000293,-0.00000525,-0.00000107,-0.00002111,-0
 .00000621,-0.00000023,0.00001051,0.00000490,-0.00000238,-0.00000030,0.
 00000100,-0.00000261,0.00000460,0.00000487,0.00000121,-0.00000306,-0.0
 0000484,-0.00000442,0.00000137,0.00000148,0.00000076,0.00000142,0.0000
 0314,0.00000028,0.00000082,-0.00000032,0.00000040,-0.00039171,0.000426
 94,0.00026706,0.00001402,0.00000326,0.00000022,0.00003854,-0.00012234,
 0.00008529,0.00006342,0.00010237,-0.00012068,-0.00001164,0.00008496,-0
 .00002335,0.00001569,0.00000474,-0.00010426,0.00000234,0.00001350,0.00
 001602,-0.00005137,0.00002596,-0.00000143,0.00002846,-0.00001183,-0.00
 000112,0.00004946,-0.00003463,0.00002463,0.00003692,-0.00002299,0.0000
 0552,-0.00000836,-0.00000132,-0.00001308,0.00000030,-0.00000173,-0.000
 00114,0.00000110,0.00000115,0.00000048,-0.00000233,-0.00000011,0.00000
 037,0.00000554,-0.00000941,-0.00000756,-0.00001614,-0.00000711,0.00000
 960,-0.00000002,0.00000436,0.00000070,-0.00000143,-0.00000194,-0.00000
 052,0.00000162,0.00000176,-0.00000004,0.00000011,0.00000002,-0.0000001
 6,-0.00006833,0.00001995,0.00004412,0.00003324,-0.00004863,-0.00004012
 ,-0.00010715,0.00012748,0.00006001,0.00013075,-0.00016371,0.00004049,0
 .00006569,-0.00005099,-0.00005396,0.00003776,-0.00001944,-0.00001874,0
 .01241052,0.00415564,0.00616782,0.00579146,0.00046339,0.00240799,0.111
 07645,0.02397099,0.10973979\\0.00000018,0.00000028,0.00000007,0.000000
 18,0.00000018,0.00000011,0.00000023,0.00000024,0.00000004,0.00000017,0
 .00000019,0.,0.00000025,0.00000027,0.00000009,-0.00000005,0.00000022,0
 .00000002,0.00000006,0.00000015,0.00000005,0.00000010,0.00000022,0.000
 00016,-0.00000008,0.00000010,0.00000028,0.00000010,0.00000018,0.000000
 23,-0.00000003,0.00000017,0.00000011,-0.00000002,0.00000019,0.00000026
 ,-0.00000005,0.00000018,0.00000027,-0.00000012,0.00000006,0.00000042,0
 .00000002,0.00000024,0.00000037,-0.00000014,0.00000010,0.00000033,-0.0
 0000009,0.00000018,0.00000040,-0.00000016,0.00000015,0.00000039,-0.000
 00021,0.00000016,0.00000052,-0.00000011,0.00000021,0.00000049,-0.00000
 017,0.00000011,0.00000041,-0.00000008,-0.00000003,0.00000013,0.0000002
 0,0.00000008,0.00000026,-0.00000002,-0.00000002,0.00000016,-0.00000011
 ,0.00000038,0.,0.,0.00000023,0.00000030,0.00000010,-0.00000024,0.00000
 025,-0.00000014,0.00000005,0.00000014,-0.00000016,0.00000018,-0.000000
 17,0.00000003,0.00000009,0.00000018,-0.00000037,-0.00000005,0.00000003
 ,0.00000007,0.00000024,0.00000011,0.00000021,0.00000017,0.00000022,0.0
 0000015,0.00000006,0.,0.00000008,-0.00000002,0.00000002,0.00000014,0.0
 0000018,0.00000008,0.00000016,-0.00000011,-0.00000005,-0.00000004,0.00
 000004,-0.00000002,0.00000002,-0.00000017,-0.00000018,0.00000040,0.000
 00002,-0.00000031,0.00000001,0.,-0.00000016,0.00000037,-0.00000016,0.0
 0000030,-0.00000020,-0.00000009,0.,-0.00000031,0.00000010,-0.00000075,
 -0.00000023,0.00000006,-0.00000006,-0.00000002,0.00000033,0.,0.0000001
 9,0.00000009,0.00000013,0.00000029,-0.00000019,-0.00000017,0.00000012,
 -0.00000019,-0.00000039,-0.00000013,-0.00000014,-0.00000019,-0.0000000
 9,-0.00000033,-0.00000008,0.00000020,0.00000012,-0.00000029,0.00000024
 ,0.00000003,-0.00000028,0.00000023,-0.00000003,-0.00000025,0.00000022,
 -0.00000008,-0.00000038,-0.00000004,0.,-0.00000012,0.00000012,-0.00000
 003,-0.00000038,0.00000031,-0.00000011,-0.00000014,0.00000012,-0.00000
 012,-0.00000039,0.,-0.00000001,0.00000002,-0.00000008,-0.00000002,0.00
 000001,-0.00000030,0.00000052,-0.00000020,-0.00000004,-0.00000025,0.00
 000027,-0.00000015,-0.00000026,0.00000005,0.,-0.00000012,0.,-0.0000002
 0,0.00000002,-0.00000009,-0.00000020,-0.00000011,0.00000004,-0.0000002
 7,-0.00000010,0.00000017,-0.00000026,-0.00000012,0.00000011,0.00000046
 ,-0.00000087,0.00000084,-0.00000021,-0.00000007,0.00000016,0.00000029,
 -0.00000018,-0.00000043,-0.00000015,-0.00000008,-0.00000003,0.00000007
 ,-0.00000034,-0.00000037,0.00000004,0.00000025,0.00000044,0.00000018,0
 .00000032,-0.00000017,0.00000014,-0.00000003,-0.00000047,0.00000016,0.
 00000005,-0.00000027,0.00000027,-0.00000061,-0.00000036,-0.00000047,-0
 .00000049,0.00000027,-0.00000009,0.00000024,-0.00000042,-0.00000020,-0
 .00000012,0.00000002,-0.00000022,-0.00000039,-0.00000019,-0.00000034,-
 0.00000018,0.00000014,-0.00000026,-0.00000014,0.00000026,-0.00000030,-
 0.00000012,0.00000017,-0.00000017,-0.00000019,-0.00000019,-0.00000011,
 -0.00000016,-0.00000030,-0.00000012,-0.00000013,0.,0.00000003,0.000000
 02,0.00000006,-0.00000011,0.00000021,0.00000017,-0.00000004,0.00000013
 ,0.00000017,-0.00000008,-0.00000019,-0.00000046,0.,-0.00000010,-0.0000
 0028,-0.00000012,-0.00000020,-0.00000025,0.00000010,-0.00000011,-0.000
 00028,0.00000003,-0.00000023,-0.00000035,-0.00000007,-0.00000022,-0.00
 000017,0.00000024,0.00000004,-0.00000025,0.00000017,0.00000018,-0.0000
 0011,0.00000032,0.00000009,-0.00000035\\\@


 MANHOOD BEGINS BY TRYING TO SHAVE FACE,
 AND ENDS BY TRYING TO SAVE FACE.
 Job cpu time:      74 days  1 hours 23 minutes  0.4 seconds.
 Elapsed time:       1 days 21 hours 30 minutes 54.1 seconds.
 File lengths (MBytes):  RWF=  89165 Int=      0 D2E=      0 Chk=    216 Scr=      1
 Normal termination of Gaussian 16 at Thu May  9 17:46:19 2024.
