 Entering Gaussian System, Link 0=g16
 Input=1water-ofreq.gjf
 Output=1water-ofreq.log
 Initial command:
 /packages/apps/gaussian/g16/g16/l1.exe "/scratch/mdturne9/26scratch/oFreq/Gau-232049.inp" -scrdir="/scratch/mdturne9/26scratch/oFreq/"
 Entering Link 1 = /packages/apps/gaussian/g16/g16/l1.exe PID=    232050.
  
 Copyright (c) 1988,1990,1992,1993,1995,1998,2003,2009,2016,
            Gaussian, Inc.  All Rights Reserved.
  
 This is part of the Gaussian(R) 16 program.  It is based on
 the Gaussian(R) 09 system (copyright 2009, Gaussian, Inc.),
 the Gaussian(R) 03 system (copyright 2003, Gaussian, Inc.),
 the Gaussian(R) 98 system (copyright 1998, Gaussian, Inc.),
 the Gaussian(R) 94 system (copyright 1995, Gaussian, Inc.),
 the Gaussian 92(TM) system (copyright 1992, Gaussian, Inc.),
 the Gaussian 90(TM) system (copyright 1990, Gaussian, Inc.),
 the Gaussian 88(TM) system (copyright 1988, Gaussian, Inc.),
 the Gaussian 86(TM) system (copyright 1986, Carnegie Mellon
 University), and the Gaussian 82(TM) system (copyright 1983,
 Carnegie Mellon University). Gaussian is a federally registered
 trademark of Gaussian, Inc.
  
 This software contains proprietary and confidential information,
 including trade secrets, belonging to Gaussian, Inc.
  
 This software is provided under written license and may be
 used, copied, transmitted, or stored only in accord with that
 written license.
  
 The following legend is applicable only to US Government
 contracts under FAR:
  
                    RESTRICTED RIGHTS LEGEND
  
 Use, reproduction and disclosure by the US Government is
 subject to restrictions as set forth in subparagraphs (a)
 and (c) of the Commercial Computer Software - Restricted
 Rights clause in FAR 52.227-19.
  
 Gaussian, Inc.
 340 Quinnipiac St., Bldg. 40, Wallingford CT 06492
  
  
 ---------------------------------------------------------------
 Warning -- This program may not be used in any manner that
 competes with the business of Gaussian, Inc. or will provide
 assistance to any competitor of Gaussian, Inc.  The licensee
 of this program is prohibited from giving any competitor of
 Gaussian, Inc. access to this program.  By using this program,
 the user acknowledges that Gaussian, Inc. is engaged in the
 business of creating and licensing software in the field of
 computational chemistry and represents and warrants to the
 licensee that it is not a competitor of Gaussian, Inc. and that
 it will not use this program in any manner prohibited above.
 ---------------------------------------------------------------
  

 Cite this work as:
 Gaussian 16, Revision A.03,
 M. J. Frisch, G. W. Trucks, H. B. Schlegel, G. E. Scuseria, 
 M. A. Robb, J. R. Cheeseman, G. Scalmani, V. Barone, 
 G. A. Petersson, H. Nakatsuji, X. Li, M. Caricato, A. V. Marenich, 
 J. Bloino, B. G. Janesko, R. Gomperts, B. Mennucci, H. P. Hratchian, 
 J. V. Ortiz, A. F. Izmaylov, J. L. Sonnenberg, D. Williams-Young, 
 F. Ding, F. Lipparini, F. Egidi, J. Goings, B. Peng, A. Petrone, 
 T. Henderson, D. Ranasinghe, V. G. Zakrzewski, J. Gao, N. Rega, 
 G. Zheng, W. Liang, M. Hada, M. Ehara, K. Toyota, R. Fukuda, 
 J. Hasegawa, M. Ishida, T. Nakajima, Y. Honda, O. Kitao, H. Nakai, 
 T. Vreven, K. Throssell, J. A. Montgomery, Jr., J. E. Peralta, 
 F. Ogliaro, M. J. Bearpark, J. J. Heyd, E. N. Brothers, K. N. Kudin, 
 V. N. Staroverov, T. A. Keith, R. Kobayashi, J. Normand, 
 K. Raghavachari, A. P. Rendell, J. C. Burant, S. S. Iyengar, 
 J. Tomasi, M. Cossi, J. M. Millam, M. Klene, C. Adamo, R. Cammi, 
 J. W. Ochterski, R. L. Martin, K. Morokuma, O. Farkas, 
 J. B. Foresman, and D. J. Fox, Gaussian, Inc., Wallingford CT, 2016.
 
 ******************************************
 Gaussian 16:  ES64L-G16RevA.03 25-Dec-2016
                 8-Mar-2024 
 ******************************************
 %nprocshared=20
 Will use up to   20 processors via shared memory.
 %mem=15GB
 %chk=1water-ofreq.chk
 ---------------------------------------------------
 #p opt freq wb97xd/6-311+g(2d,2p) geom=connectivity
 ---------------------------------------------------
 1/18=20,19=15,26=3,38=1,57=2/1,3;
 2/9=110,12=2,17=6,18=5,40=1/2;
 3/5=4,6=6,7=212,11=2,25=1,30=1,71=1,74=-58/1,2,3;
 4//1;
 5/5=2,38=5/2;
 6/7=2,8=2,9=2,10=2,28=1/1;
 7//1,2,3,16;
 1/18=20,19=15,26=3/3(2);
 2/9=110/2;
 99//99;
 2/9=110/2;
 3/5=4,6=6,7=212,11=2,25=1,30=1,71=1,74=-58/1,2,3;
 4/5=5,16=3,69=1/1;
 5/5=2,38=5/2;
 7//1,2,3,16;
 1/18=20,19=15,26=3/3(-5);
 2/9=110/2;
 6/7=2,8=2,9=2,10=2,19=2,28=1/1;
 99/9=1/99;
 Leave Link    1 at Fri Mar  8 14:42:21 2024, MaxMem=  2013265920 cpu:               6.5 elap:               0.5
 (Enter /packages/apps/gaussian/g16/g16/l101.exe)
 --------
 Required
 --------
 Symbolic Z-matrix:
 Charge =  0 Multiplicity = 1
 C                    0    -4.73678  -3.35626   1.63857  L 
 C                    0    -3.98378  -2.0536    1.36855  L 
 H                    0    -4.12997  -4.0536    2.21638  L 
 H                    0    -5.65104  -3.15373   2.19752  L 
 H                    0    -5.02785  -3.85149   0.71062  L 
 C                    0    -4.81299  -1.1114    0.47173  L 
 H                    0    -3.8331   -1.55048   2.32795  L 
 C                    0    -4.29949   0.33007   0.47283  L 
 H                    0    -4.75112   0.88209   1.3024   L 
 H                    0    -3.22735   0.32712   0.66403  L 
 C                    0    -4.53294   1.0757   -0.83532  L 
 C                    0    -3.9753    2.50795  -0.83815  L 
 H                    0    -4.55821   3.08845  -0.11704  L 
 C                    0    -4.14621   3.15663  -2.21425  L 
 H                    0    -3.80494   4.192    -2.20645  L 
 H                    0    -3.56779   2.61964  -2.9682   L 
 H                    0    -5.19346   3.14278  -2.52069  L 
 C                    0    -2.6136   -2.27253   0.75424  L 
 C                    0    -2.42427  -3.17953  -0.28633  L 
 C                    0    -1.52298  -1.50057   1.15086  L 
 C                    0    -1.19046  -3.30406  -0.9067   L 
 H                    0    -3.24988  -3.78712  -0.63303  L 
 C                    0    -0.29533  -1.59771   0.5169   L 
 H                    0    -1.64408  -0.78365   1.95369  L 
 C                    0    -0.11329  -2.51524  -0.51538  L 
 H                    0    -1.07633  -4.00296  -1.72778  L 
 H                    0     0.53805  -0.9557    0.7907   L 
 C                    0    -2.52964   2.55903  -0.38305  L 
 C                    0    -1.55305   1.76368  -0.98177  L 
 C                    0    -2.14939   3.37193   0.67874  L 
 C                    0    -0.24562   1.75632  -0.52747  L 
 H                    0    -1.82295   1.10231  -1.79575  L 
 C                    0    -0.8376    3.3842    1.13226  L 
 H                    0    -2.89205   3.98598   1.17345  L 
 C                    0     0.127     2.57905   0.53633  L 
 H                    0     0.50193   1.09595  -0.96783  L 
 H                    0    -0.57383   4.00589   1.98054  L 
 C                    0     1.528     2.51724   1.07049  L 
 H                    0     1.55536   2.81646   2.11823  L 
 H                    0     1.93454   1.50273   0.98992  L 
 C                    0     1.20454  -2.56104  -1.22682  L 
 H                    0     1.09083  -2.93893  -2.24286  L 
 H                    0     1.63815  -1.55043  -1.27305  L 
 C                    0     3.88932   3.10925   0.89773  L 
 H                    0     4.58398   3.85904   0.52455  L 
 H                    0     3.85768   3.1384    1.98449  L 
 H                    0     4.17469   2.11381   0.53312  L 
 C                    0     2.20394   4.85562   0.69934  L 
 H                    0     1.19276   5.07533   0.36784  L 
 H                    0     2.28369   5.00273   1.77394  L 
 H                    0     2.91118   5.50172   0.18541  L 
 C                    0     2.51547   3.27102  -1.10931  L 
 H                    0     2.63277   2.21391  -1.36305  L 
 H                    0     1.57002   3.64575  -1.49118  L 
 H                    0     3.34117   3.85425  -1.50985  L 
 C                    0     3.57927  -3.10946  -1.17271  L 
 H                    0     4.31424  -3.83651  -0.8364   L 
 H                    0     3.49288  -3.12078  -2.2563   L 
 H                    0     3.86331  -2.11998  -0.82695  L 
 C                    0     2.32475  -3.28965   0.8966   L 
 H                    0     2.41989  -2.22052   1.08858  L 
 H                    0     1.42235  -3.69895   1.34079  L 
 H                    0     3.20835  -3.81157   1.25454  L 
 C                    0     1.94246  -4.88827  -0.88682  L 
 H                    0     0.94293  -5.11298  -0.52337  L 
 H                    0     1.99173  -5.04409  -1.96202  L 
 H                    0     2.6695   -5.52346  -0.38656  L 
 N                    0     2.52479   3.44392   0.37836  L 
 N                    0     2.25271  -3.47071  -0.58614  L 
 C                    0     3.14049   0.12089  -0.44624  L 
 O                    0     2.30611   0.19372  -1.42212  L 
 O                    0     4.35132   0.48079  -0.57187  L 
 O                    0     2.70156  -0.30315   0.71492  L 
 H                    0    -4.06992   0.50802  -1.64874  L 
 H                    0    -5.60121   1.1185   -1.06655  L 
 H                    0    -5.85733  -1.13824   0.79282  L 
 H                    0    -4.79577  -1.51243  -0.54633  L 
 O                    0     5.02911  -1.44773   1.53125  L 
 H                    0     5.53082  -0.94903   0.88033  L 
 H                    0     4.16299  -0.99321   1.42611  L 
 
 Add virtual bond connecting atoms H80        and O73        Dist= 3.34D+00.
 Add virtual bond connecting atoms O71        and H43        Dist= 3.54D+00.
 Add virtual bond connecting atoms O72        and H47        Dist= 3.74D+00.
 Add virtual bond connecting atoms O73        and H40        Dist= 3.74D+00.
 Add virtual bond connecting atoms O73        and H61        Dist= 3.73D+00.
 ITRead=  0  0  0  0  0  0  0  0  0  0  0  0  0  0  0  0  0  0  0  0
 ITRead=  0  0  0  0  0  0  0  0  0  0  0  0  0  0  0  0  0  0  0  0
 ITRead=  0  0  0  0  0  0  0  0  0  0  0  0  0  0  0  0  0  0  0  0
 ITRead=  0  0  0  0  0  0  0  0  0  0  0  0  0  0  0  0  0  0  0  0
 MicOpt= -1 -1 -1 -1 -1 -1 -1 -1 -1 -1 -1 -1 -1 -1 -1 -1 -1 -1 -1 -1
 MicOpt= -1 -1 -1 -1 -1 -1 -1 -1 -1 -1 -1 -1 -1 -1 -1 -1 -1 -1 -1 -1
 MicOpt= -1 -1 -1 -1 -1 -1 -1 -1 -1 -1 -1 -1 -1 -1 -1 -1 -1 -1 -1 -1
 MicOpt= -1 -1 -1 -1 -1 -1 -1 -1 -1 -1 -1 -1 -1 -1 -1 -1 -1 -1 -1 -1
 NAtoms=     80 NQM=       80 NQMF=       0 NMMI=      0 NMMIF=      0
                NMic=       0 NMicF=      0.
                    Isotopes and Nuclear Properties:
 (Nuclear quadrupole moments (NQMom) in fm**2, nuclear magnetic moments (NMagM)
  in nuclear magnetons)

  Atom         1           2           3           4           5           6           7           8           9          10
 IAtWgt=          12          12           1           1           1          12           1          12           1           1
 AtmWgt=  12.0000000  12.0000000   1.0078250   1.0078250   1.0078250  12.0000000   1.0078250  12.0000000   1.0078250   1.0078250
 NucSpn=           0           0           1           1           1           0           1           0           1           1
 AtZEff=  -0.0000000  -0.0000000  -0.0000000  -0.0000000  -0.0000000  -0.0000000  -0.0000000  -0.0000000  -0.0000000  -0.0000000
 NQMom=    0.0000000   0.0000000   0.0000000   0.0000000   0.0000000   0.0000000   0.0000000   0.0000000   0.0000000   0.0000000
 NMagM=    0.0000000   0.0000000   2.7928460   2.7928460   2.7928460   0.0000000   2.7928460   0.0000000   2.7928460   2.7928460
 AtZNuc=   6.0000000   6.0000000   1.0000000   1.0000000   1.0000000   6.0000000   1.0000000   6.0000000   1.0000000   1.0000000

  Atom        11          12          13          14          15          16          17          18          19          20
 IAtWgt=          12          12           1          12           1           1           1          12          12          12
 AtmWgt=  12.0000000  12.0000000   1.0078250  12.0000000   1.0078250   1.0078250   1.0078250  12.0000000  12.0000000  12.0000000
 NucSpn=           0           0           1           0           1           1           1           0           0           0
 AtZEff=  -0.0000000  -0.0000000  -0.0000000  -0.0000000  -0.0000000  -0.0000000  -0.0000000  -0.0000000  -0.0000000  -0.0000000
 NQMom=    0.0000000   0.0000000   0.0000000   0.0000000   0.0000000   0.0000000   0.0000000   0.0000000   0.0000000   0.0000000
 NMagM=    0.0000000   0.0000000   2.7928460   0.0000000   2.7928460   2.7928460   2.7928460   0.0000000   0.0000000   0.0000000
 AtZNuc=   6.0000000   6.0000000   1.0000000   6.0000000   1.0000000   1.0000000   1.0000000   6.0000000   6.0000000   6.0000000

  Atom        21          22          23          24          25          26          27          28          29          30
 IAtWgt=          12           1          12           1          12           1           1          12          12          12
 AtmWgt=  12.0000000   1.0078250  12.0000000   1.0078250  12.0000000   1.0078250   1.0078250  12.0000000  12.0000000  12.0000000
 NucSpn=           0           1           0           1           0           1           1           0           0           0
 AtZEff=  -0.0000000  -0.0000000  -0.0000000  -0.0000000  -0.0000000  -0.0000000  -0.0000000  -0.0000000  -0.0000000  -0.0000000
 NQMom=    0.0000000   0.0000000   0.0000000   0.0000000   0.0000000   0.0000000   0.0000000   0.0000000   0.0000000   0.0000000
 NMagM=    0.0000000   2.7928460   0.0000000   2.7928460   0.0000000   2.7928460   2.7928460   0.0000000   0.0000000   0.0000000
 AtZNuc=   6.0000000   1.0000000   6.0000000   1.0000000   6.0000000   1.0000000   1.0000000   6.0000000   6.0000000   6.0000000

  Atom        31          32          33          34          35          36          37          38          39          40
 IAtWgt=          12           1          12           1          12           1           1          12           1           1
 AtmWgt=  12.0000000   1.0078250  12.0000000   1.0078250  12.0000000   1.0078250   1.0078250  12.0000000   1.0078250   1.0078250
 NucSpn=           0           1           0           1           0           1           1           0           1           1
 AtZEff=  -0.0000000  -0.0000000  -0.0000000  -0.0000000  -0.0000000  -0.0000000  -0.0000000  -0.0000000  -0.0000000  -0.0000000
 NQMom=    0.0000000   0.0000000   0.0000000   0.0000000   0.0000000   0.0000000   0.0000000   0.0000000   0.0000000   0.0000000
 NMagM=    0.0000000   2.7928460   0.0000000   2.7928460   0.0000000   2.7928460   2.7928460   0.0000000   2.7928460   2.7928460
 AtZNuc=   6.0000000   1.0000000   6.0000000   1.0000000   6.0000000   1.0000000   1.0000000   6.0000000   1.0000000   1.0000000

  Atom        41          42          43          44          45          46          47          48          49          50
 IAtWgt=          12           1           1          12           1           1           1          12           1           1
 AtmWgt=  12.0000000   1.0078250   1.0078250  12.0000000   1.0078250   1.0078250   1.0078250  12.0000000   1.0078250   1.0078250
 NucSpn=           0           1           1           0           1           1           1           0           1           1
 AtZEff=  -0.0000000  -0.0000000  -0.0000000  -0.0000000  -0.0000000  -0.0000000  -0.0000000  -0.0000000  -0.0000000  -0.0000000
 NQMom=    0.0000000   0.0000000   0.0000000   0.0000000   0.0000000   0.0000000   0.0000000   0.0000000   0.0000000   0.0000000
 NMagM=    0.0000000   2.7928460   2.7928460   0.0000000   2.7928460   2.7928460   2.7928460   0.0000000   2.7928460   2.7928460
 AtZNuc=   6.0000000   1.0000000   1.0000000   6.0000000   1.0000000   1.0000000   1.0000000   6.0000000   1.0000000   1.0000000

  Atom        51          52          53          54          55          56          57          58          59          60
 IAtWgt=           1          12           1           1           1          12           1           1           1          12
 AtmWgt=   1.0078250  12.0000000   1.0078250   1.0078250   1.0078250  12.0000000   1.0078250   1.0078250   1.0078250  12.0000000
 NucSpn=           1           0           1           1           1           0           1           1           1           0
 AtZEff=  -0.0000000  -0.0000000  -0.0000000  -0.0000000  -0.0000000  -0.0000000  -0.0000000  -0.0000000  -0.0000000  -0.0000000
 NQMom=    0.0000000   0.0000000   0.0000000   0.0000000   0.0000000   0.0000000   0.0000000   0.0000000   0.0000000   0.0000000
 NMagM=    2.7928460   0.0000000   2.7928460   2.7928460   2.7928460   0.0000000   2.7928460   2.7928460   2.7928460   0.0000000
 AtZNuc=   1.0000000   6.0000000   1.0000000   1.0000000   1.0000000   6.0000000   1.0000000   1.0000000   1.0000000   6.0000000

  Atom        61          62          63          64          65          66          67          68          69          70
 IAtWgt=           1           1           1          12           1           1           1          14          14          12
 AtmWgt=   1.0078250   1.0078250   1.0078250  12.0000000   1.0078250   1.0078250   1.0078250  14.0030740  14.0030740  12.0000000
 NucSpn=           1           1           1           0           1           1           1           2           2           0
 AtZEff=  -0.0000000  -0.0000000  -0.0000000  -0.0000000  -0.0000000  -0.0000000  -0.0000000  -0.0000000  -0.0000000  -0.0000000
 NQMom=    0.0000000   0.0000000   0.0000000   0.0000000   0.0000000   0.0000000   0.0000000   2.0440000   2.0440000   0.0000000
 NMagM=    2.7928460   2.7928460   2.7928460   0.0000000   2.7928460   2.7928460   2.7928460   0.4037610   0.4037610   0.0000000
 AtZNuc=   1.0000000   1.0000000   1.0000000   6.0000000   1.0000000   1.0000000   1.0000000   7.0000000   7.0000000   6.0000000

  Atom        71          72          73          74          75          76          77          78          79          80
 IAtWgt=          16          16          16           1           1           1           1          16           1           1
 AtmWgt=  15.9949146  15.9949146  15.9949146   1.0078250   1.0078250   1.0078250   1.0078250  15.9949146   1.0078250   1.0078250
 NucSpn=           0           0           0           1           1           1           1           0           1           1
 AtZEff=  -0.0000000  -0.0000000  -0.0000000  -0.0000000  -0.0000000  -0.0000000  -0.0000000  -0.0000000  -0.0000000  -0.0000000
 NQMom=    0.0000000   0.0000000   0.0000000   0.0000000   0.0000000   0.0000000   0.0000000   0.0000000   0.0000000   0.0000000
 NMagM=    0.0000000   0.0000000   0.0000000   2.7928460   2.7928460   2.7928460   2.7928460   0.0000000   2.7928460   2.7928460
 AtZNuc=   8.0000000   8.0000000   8.0000000   1.0000000   1.0000000   1.0000000   1.0000000   8.0000000   1.0000000   1.0000000
 Leave Link  101 at Fri Mar  8 14:42:22 2024, MaxMem=  2013265920 cpu:               4.3 elap:               0.4
 (Enter /packages/apps/gaussian/g16/g16/l103.exe)

 GradGradGradGradGradGradGradGradGradGradGradGradGradGradGradGradGradGrad
 Berny optimization.
 Initialization pass.
                           ----------------------------
                           !    Initial Parameters    !
                           ! (Angstroms and Degrees)  !
 --------------------------                            --------------------------
 ! Name  Definition              Value          Derivative Info.                !
 --------------------------------------------------------------------------------
 ! R1    R(1,2)                  1.5287         estimate D2E/DX2                !
 ! R2    R(1,3)                  1.0901         estimate D2E/DX2                !
 ! R3    R(1,4)                  1.0906         estimate D2E/DX2                !
 ! R4    R(1,5)                  1.0914         estimate D2E/DX2                !
 ! R5    R(2,6)                  1.5426         estimate D2E/DX2                !
 ! R6    R(2,7)                  1.0937         estimate D2E/DX2                !
 ! R7    R(2,18)                 1.5175         estimate D2E/DX2                !
 ! R8    R(6,8)                  1.5302         estimate D2E/DX2                !
 ! R9    R(6,76)                 1.0929         estimate D2E/DX2                !
 ! R10   R(6,77)                 1.0943         estimate D2E/DX2                !
 ! R11   R(8,9)                  1.094          estimate D2E/DX2                !
 ! R12   R(8,10)                 1.0891         estimate D2E/DX2                !
 ! R13   R(8,11)                 1.5237         estimate D2E/DX2                !
 ! R14   R(11,12)                1.537          estimate D2E/DX2                !
 ! R15   R(11,74)                1.0947         estimate D2E/DX2                !
 ! R16   R(11,75)                1.0939         estimate D2E/DX2                !
 ! R17   R(12,13)                1.094          estimate D2E/DX2                !
 ! R18   R(12,14)                1.5309         estimate D2E/DX2                !
 ! R19   R(12,28)                1.5165         estimate D2E/DX2                !
 ! R20   R(14,15)                1.0902         estimate D2E/DX2                !
 ! R21   R(14,16)                1.0915         estimate D2E/DX2                !
 ! R22   R(14,17)                1.0912         estimate D2E/DX2                !
 ! R23   R(18,19)                1.3933         estimate D2E/DX2                !
 ! R24   R(18,20)                1.3938         estimate D2E/DX2                !
 ! R25   R(19,21)                1.3866         estimate D2E/DX2                !
 ! R26   R(19,22)                1.0821         estimate D2E/DX2                !
 ! R27   R(20,23)                1.3851         estimate D2E/DX2                !
 ! R28   R(20,24)                1.0831         estimate D2E/DX2                !
 ! R29   R(21,25)                1.3913         estimate D2E/DX2                !
 ! R30   R(21,26)                1.0843         estimate D2E/DX2                !
 ! R31   R(23,25)                1.3931         estimate D2E/DX2                !
 ! R32   R(23,27)                1.087          estimate D2E/DX2                !
 ! R33   R(25,41)                1.4983         estimate D2E/DX2                !
 ! R34   R(28,29)                1.3945         estimate D2E/DX2                !
 ! R35   R(28,30)                1.3903         estimate D2E/DX2                !
 ! R36   R(29,31)                1.3841         estimate D2E/DX2                !
 ! R37   R(29,32)                1.083          estimate D2E/DX2                !
 ! R38   R(30,33)                1.388          estimate D2E/DX2                !
 ! R39   R(30,34)                1.0832         estimate D2E/DX2                !
 ! R40   R(31,35)                1.3955         estimate D2E/DX2                !
 ! R41   R(31,36)                1.0903         estimate D2E/DX2                !
 ! R42   R(33,35)                1.3906         estimate D2E/DX2                !
 ! R43   R(33,37)                1.0843         estimate D2E/DX2                !
 ! R44   R(35,38)                1.5007         estimate D2E/DX2                !
 ! R45   R(38,39)                1.09           estimate D2E/DX2                !
 ! R46   R(38,40)                1.0959         estimate D2E/DX2                !
 ! R47   R(38,68)                1.5269         estimate D2E/DX2                !
 ! R48   R(40,73)                1.9812         estimate D2E/DX2                !
 ! R49   R(41,42)                1.09           estimate D2E/DX2                !
 ! R50   R(41,43)                1.1007         estimate D2E/DX2                !
 ! R51   R(41,69)                1.5286         estimate D2E/DX2                !
 ! R52   R(43,71)                1.8736         estimate D2E/DX2                !
 ! R53   R(44,45)                1.0881         estimate D2E/DX2                !
 ! R54   R(44,46)                1.0876         estimate D2E/DX2                !
 ! R55   R(44,47)                1.0979         estimate D2E/DX2                !
 ! R56   R(44,68)                1.4979         estimate D2E/DX2                !
 ! R57   R(47,72)                1.9796         estimate D2E/DX2                !
 ! R58   R(48,49)                1.0866         estimate D2E/DX2                !
 ! R59   R(48,50)                1.0876         estimate D2E/DX2                !
 ! R60   R(48,51)                1.0871         estimate D2E/DX2                !
 ! R61   R(48,68)                1.4829         estimate D2E/DX2                !
 ! R62   R(52,53)                1.0934         estimate D2E/DX2                !
 ! R63   R(52,54)                1.0863         estimate D2E/DX2                !
 ! R64   R(52,55)                1.0874         estimate D2E/DX2                !
 ! R65   R(52,68)                1.4977         estimate D2E/DX2                !
 ! R66   R(56,57)                1.0871         estimate D2E/DX2                !
 ! R67   R(56,58)                1.0871         estimate D2E/DX2                !
 ! R68   R(56,59)                1.086          estimate D2E/DX2                !
 ! R69   R(56,69)                1.4948         estimate D2E/DX2                !
 ! R70   R(60,61)                1.0904         estimate D2E/DX2                !
 ! R71   R(60,62)                1.0859         estimate D2E/DX2                !
 ! R72   R(60,63)                1.0869         estimate D2E/DX2                !
 ! R73   R(60,69)                1.4955         estimate D2E/DX2                !
 ! R74   R(61,73)                1.9736         estimate D2E/DX2                !
 ! R75   R(64,65)                1.087          estimate D2E/DX2                !
 ! R76   R(64,66)                1.0875         estimate D2E/DX2                !
 ! R77   R(64,67)                1.0873         estimate D2E/DX2                !
 ! R78   R(64,69)                1.4819         estimate D2E/DX2                !
 ! R79   R(70,71)                1.286          estimate D2E/DX2                !
 ! R80   R(70,72)                1.2694         estimate D2E/DX2                !
 ! R81   R(70,73)                1.3118         estimate D2E/DX2                !
 ! R82   R(73,80)                1.7657         estimate D2E/DX2                !
 ! R83   R(78,79)                0.9613         estimate D2E/DX2                !
 ! R84   R(78,80)                0.9838         estimate D2E/DX2                !
 ! A1    A(2,1,3)              111.3794         estimate D2E/DX2                !
 ! A2    A(2,1,4)              110.196          estimate D2E/DX2                !
 ! A3    A(2,1,5)              111.5846         estimate D2E/DX2                !
 ! A4    A(3,1,4)              108.2879         estimate D2E/DX2                !
 ! A5    A(3,1,5)              107.9907         estimate D2E/DX2                !
 ! A6    A(4,1,5)              107.2458         estimate D2E/DX2                !
 ! A7    A(1,2,6)              111.0011         estimate D2E/DX2                !
 ! A8    A(1,2,7)              107.7524         estimate D2E/DX2                !
 ! A9    A(1,2,18)             113.1622         estimate D2E/DX2                !
 ! A10   A(6,2,7)              107.6413         estimate D2E/DX2                !
 ! A11   A(6,2,18)             109.7632         estimate D2E/DX2                !
 ! A12   A(7,2,18)             107.2822         estimate D2E/DX2                !
 ! A13   A(2,6,8)              113.2386         estimate D2E/DX2                !
 ! A14   A(2,6,76)             109.1382         estimate D2E/DX2                !
 ! A15   A(2,6,77)             107.9727         estimate D2E/DX2                !
 ! A16   A(8,6,76)             110.0955         estimate D2E/DX2                !
 ! A17   A(8,6,77)             109.9132         estimate D2E/DX2                !
 ! A18   A(76,6,77)            106.2216         estimate D2E/DX2                !
 ! A19   A(6,8,9)              109.7147         estimate D2E/DX2                !
 ! A20   A(6,8,10)             109.144          estimate D2E/DX2                !
 ! A21   A(6,8,11)             114.1383         estimate D2E/DX2                !
 ! A22   A(9,8,10)             105.9405         estimate D2E/DX2                !
 ! A23   A(9,8,11)             109.9276         estimate D2E/DX2                !
 ! A24   A(10,8,11)            107.6308         estimate D2E/DX2                !
 ! A25   A(8,11,12)            113.703          estimate D2E/DX2                !
 ! A26   A(8,11,74)            108.6252         estimate D2E/DX2                !
 ! A27   A(8,11,75)            110.5032         estimate D2E/DX2                !
 ! A28   A(12,11,74)           109.1732         estimate D2E/DX2                !
 ! A29   A(12,11,75)           108.5105         estimate D2E/DX2                !
 ! A30   A(74,11,75)           106.0392         estimate D2E/DX2                !
 ! A31   A(11,12,13)           107.4544         estimate D2E/DX2                !
 ! A32   A(11,12,14)           110.8546         estimate D2E/DX2                !
 ! A33   A(11,12,28)           112.1301         estimate D2E/DX2                !
 ! A34   A(13,12,14)           107.9498         estimate D2E/DX2                !
 ! A35   A(13,12,28)           106.994          estimate D2E/DX2                !
 ! A36   A(14,12,28)           111.2179         estimate D2E/DX2                !
 ! A37   A(12,14,15)           111.1637         estimate D2E/DX2                !
 ! A38   A(12,14,16)           110.6876         estimate D2E/DX2                !
 ! A39   A(12,14,17)           110.7435         estimate D2E/DX2                !
 ! A40   A(15,14,16)           107.8357         estimate D2E/DX2                !
 ! A41   A(15,14,17)           108.3293         estimate D2E/DX2                !
 ! A42   A(16,14,17)           107.9602         estimate D2E/DX2                !
 ! A43   A(2,18,19)            121.2624         estimate D2E/DX2                !
 ! A44   A(2,18,20)            120.7591         estimate D2E/DX2                !
 ! A45   A(19,18,20)           117.8223         estimate D2E/DX2                !
 ! A46   A(18,19,21)           120.8983         estimate D2E/DX2                !
 ! A47   A(18,19,22)           120.0738         estimate D2E/DX2                !
 ! A48   A(21,19,22)           119.0196         estimate D2E/DX2                !
 ! A49   A(18,20,23)           121.6317         estimate D2E/DX2                !
 ! A50   A(18,20,24)           119.3422         estimate D2E/DX2                !
 ! A51   A(23,20,24)           118.9972         estimate D2E/DX2                !
 ! A52   A(19,21,25)           120.8079         estimate D2E/DX2                !
 ! A53   A(19,21,26)           119.3638         estimate D2E/DX2                !
 ! A54   A(25,21,26)           119.7984         estimate D2E/DX2                !
 ! A55   A(20,23,25)           120.0781         estimate D2E/DX2                !
 ! A56   A(20,23,27)           121.5207         estimate D2E/DX2                !
 ! A57   A(25,23,27)           118.3891         estimate D2E/DX2                !
 ! A58   A(21,25,23)           118.73           estimate D2E/DX2                !
 ! A59   A(21,25,41)           122.0116         estimate D2E/DX2                !
 ! A60   A(23,25,41)           119.1387         estimate D2E/DX2                !
 ! A61   A(12,28,29)           121.3017         estimate D2E/DX2                !
 ! A62   A(12,28,30)           120.6397         estimate D2E/DX2                !
 ! A63   A(29,28,30)           118.0235         estimate D2E/DX2                !
 ! A64   A(28,29,31)           121.5747         estimate D2E/DX2                !
 ! A65   A(28,29,32)           119.7658         estimate D2E/DX2                !
 ! A66   A(31,29,32)           118.611          estimate D2E/DX2                !
 ! A67   A(28,30,33)           120.8771         estimate D2E/DX2                !
 ! A68   A(28,30,34)           119.5213         estimate D2E/DX2                !
 ! A69   A(33,30,34)           119.5855         estimate D2E/DX2                !
 ! A70   A(29,31,35)           119.9525         estimate D2E/DX2                !
 ! A71   A(29,31,36)           121.2168         estimate D2E/DX2                !
 ! A72   A(35,31,36)           118.8091         estimate D2E/DX2                !
 ! A73   A(30,33,35)           120.6909         estimate D2E/DX2                !
 ! A74   A(30,33,37)           119.3802         estimate D2E/DX2                !
 ! A75   A(35,33,37)           119.9            estimate D2E/DX2                !
 ! A76   A(31,35,33)           118.8694         estimate D2E/DX2                !
 ! A77   A(31,35,38)           119.7584         estimate D2E/DX2                !
 ! A78   A(33,35,38)           121.2578         estimate D2E/DX2                !
 ! A79   A(35,38,39)           110.7498         estimate D2E/DX2                !
 ! A80   A(35,38,40)           110.9951         estimate D2E/DX2                !
 ! A81   A(35,38,68)           115.0323         estimate D2E/DX2                !
 ! A82   A(39,38,40)           108.3906         estimate D2E/DX2                !
 ! A83   A(39,38,68)           104.6392         estimate D2E/DX2                !
 ! A84   A(40,38,68)           106.6388         estimate D2E/DX2                !
 ! A85   A(25,41,42)           111.1894         estimate D2E/DX2                !
 ! A86   A(25,41,43)           109.7781         estimate D2E/DX2                !
 ! A87   A(25,41,69)           114.9787         estimate D2E/DX2                !
 ! A88   A(42,41,43)           108.6795         estimate D2E/DX2                !
 ! A89   A(42,41,69)           104.8274         estimate D2E/DX2                !
 ! A90   A(43,41,69)           107.0903         estimate D2E/DX2                !
 ! A91   A(45,44,46)           110.0472         estimate D2E/DX2                !
 ! A92   A(45,44,47)           110.1781         estimate D2E/DX2                !
 ! A93   A(45,44,68)           107.9807         estimate D2E/DX2                !
 ! A94   A(46,44,47)           111.3282         estimate D2E/DX2                !
 ! A95   A(46,44,68)           108.2991         estimate D2E/DX2                !
 ! A96   A(47,44,68)           108.9188         estimate D2E/DX2                !
 ! A97   A(44,47,72)           163.0437         estimate D2E/DX2                !
 ! A98   A(49,48,50)           110.0193         estimate D2E/DX2                !
 ! A99   A(49,48,51)           109.9391         estimate D2E/DX2                !
 ! A100  A(49,48,68)           109.1366         estimate D2E/DX2                !
 ! A101  A(50,48,51)           109.8178         estimate D2E/DX2                !
 ! A102  A(50,48,68)           109.0746         estimate D2E/DX2                !
 ! A103  A(51,48,68)           108.8276         estimate D2E/DX2                !
 ! A104  A(53,52,54)           110.1987         estimate D2E/DX2                !
 ! A105  A(53,52,55)           110.5857         estimate D2E/DX2                !
 ! A106  A(53,52,68)           109.9647         estimate D2E/DX2                !
 ! A107  A(54,52,55)           110.2657         estimate D2E/DX2                !
 ! A108  A(54,52,68)           108.3459         estimate D2E/DX2                !
 ! A109  A(55,52,68)           107.4119         estimate D2E/DX2                !
 ! A110  A(57,56,58)           110.8007         estimate D2E/DX2                !
 ! A111  A(57,56,59)           109.5136         estimate D2E/DX2                !
 ! A112  A(57,56,69)           108.4793         estimate D2E/DX2                !
 ! A113  A(58,56,59)           110.3431         estimate D2E/DX2                !
 ! A114  A(58,56,69)           108.5487         estimate D2E/DX2                !
 ! A115  A(59,56,69)           109.1102         estimate D2E/DX2                !
 ! A116  A(61,60,62)           111.72           estimate D2E/DX2                !
 ! A117  A(61,60,63)           109.9945         estimate D2E/DX2                !
 ! A118  A(61,60,69)           107.3059         estimate D2E/DX2                !
 ! A119  A(62,60,63)           111.0935         estimate D2E/DX2                !
 ! A120  A(62,60,69)           108.6566         estimate D2E/DX2                !
 ! A121  A(63,60,69)           107.9115         estimate D2E/DX2                !
 ! A122  A(60,61,73)           158.6964         estimate D2E/DX2                !
 ! A123  A(65,64,66)           110.0348         estimate D2E/DX2                !
 ! A124  A(65,64,67)           109.8911         estimate D2E/DX2                !
 ! A125  A(65,64,69)           108.808          estimate D2E/DX2                !
 ! A126  A(66,64,67)           109.9291         estimate D2E/DX2                !
 ! A127  A(66,64,69)           109.1572         estimate D2E/DX2                !
 ! A128  A(67,64,69)           108.9936         estimate D2E/DX2                !
 ! A129  A(38,68,44)           107.5735         estimate D2E/DX2                !
 ! A130  A(38,68,48)           109.7804         estimate D2E/DX2                !
 ! A131  A(38,68,52)           112.0939         estimate D2E/DX2                !
 ! A132  A(44,68,48)           109.5579         estimate D2E/DX2                !
 ! A133  A(44,68,52)           108.9221         estimate D2E/DX2                !
 ! A134  A(48,68,52)           108.8788         estimate D2E/DX2                !
 ! A135  A(41,69,56)           107.4723         estimate D2E/DX2                !
 ! A136  A(41,69,60)           112.1193         estimate D2E/DX2                !
 ! A137  A(41,69,64)           109.9168         estimate D2E/DX2                !
 ! A138  A(56,69,60)           108.4852         estimate D2E/DX2                !
 ! A139  A(56,69,64)           109.7155         estimate D2E/DX2                !
 ! A140  A(60,69,64)           109.0908         estimate D2E/DX2                !
 ! A141  A(71,70,72)           121.8506         estimate D2E/DX2                !
 ! A142  A(71,70,73)           118.2239         estimate D2E/DX2                !
 ! A143  A(72,70,73)           119.8956         estimate D2E/DX2                !
 ! A144  A(43,71,70)            96.7888         estimate D2E/DX2                !
 ! A145  A(47,72,70)            95.3666         estimate D2E/DX2                !
 ! A146  A(40,73,61)           143.5127         estimate D2E/DX2                !
 ! A147  A(40,73,70)            87.579          estimate D2E/DX2                !
 ! A148  A(40,73,80)           128.3708         estimate D2E/DX2                !
 ! A149  A(61,73,70)           121.9636         estimate D2E/DX2                !
 ! A150  A(61,73,80)            70.2573         estimate D2E/DX2                !
 ! A151  A(70,73,80)           101.883          estimate D2E/DX2                !
 ! A152  A(79,78,80)            98.4782         estimate D2E/DX2                !
 ! A153  A(73,80,78)           162.2312         estimate D2E/DX2                !
 ! A154  L(38,40,73,1,-1)      181.5587         estimate D2E/DX2                !
 ! A155  L(41,43,71,6,-1)      178.3621         estimate D2E/DX2                !
 ! A156  L(38,40,73,1,-2)      176.286          estimate D2E/DX2                !
 ! A157  L(41,43,71,6,-2)      182.8062         estimate D2E/DX2                !
 ! D1    D(3,1,2,6)            176.2154         estimate D2E/DX2                !
 ! D2    D(3,1,2,7)            -66.1552         estimate D2E/DX2                !
 ! D3    D(3,1,2,18)            52.2853         estimate D2E/DX2                !
 ! D4    D(4,1,2,6)            -63.5818         estimate D2E/DX2                !
 ! D5    D(4,1,2,7)             54.0475         estimate D2E/DX2                !
 ! D6    D(4,1,2,18)           172.488          estimate D2E/DX2                !
 ! D7    D(5,1,2,6)             55.4466         estimate D2E/DX2                !
 ! D8    D(5,1,2,7)            173.0759         estimate D2E/DX2                !
 ! D9    D(5,1,2,18)           -68.4836         estimate D2E/DX2                !
 ! D10   D(1,2,6,8)            164.4677         estimate D2E/DX2                !
 ! D11   D(1,2,6,76)            41.456          estimate D2E/DX2                !
 ! D12   D(1,2,6,77)           -73.5958         estimate D2E/DX2                !
 ! D13   D(7,2,6,8)             46.7707         estimate D2E/DX2                !
 ! D14   D(7,2,6,76)           -76.241          estimate D2E/DX2                !
 ! D15   D(7,2,6,77)           168.7072         estimate D2E/DX2                !
 ! D16   D(18,2,6,8)           -69.6853         estimate D2E/DX2                !
 ! D17   D(18,2,6,76)          167.3029         estimate D2E/DX2                !
 ! D18   D(18,2,6,77)           52.2511         estimate D2E/DX2                !
 ! D19   D(1,2,18,19)           44.5567         estimate D2E/DX2                !
 ! D20   D(1,2,18,20)         -140.0853         estimate D2E/DX2                !
 ! D21   D(6,2,18,19)          -80.0485         estimate D2E/DX2                !
 ! D22   D(6,2,18,20)           95.3095         estimate D2E/DX2                !
 ! D23   D(7,2,18,19)          163.2696         estimate D2E/DX2                !
 ! D24   D(7,2,18,20)          -21.3724         estimate D2E/DX2                !
 ! D25   D(2,6,8,9)            -87.0948         estimate D2E/DX2                !
 ! D26   D(2,6,8,10)            28.5768         estimate D2E/DX2                !
 ! D27   D(2,6,8,11)           149.034          estimate D2E/DX2                !
 ! D28   D(76,6,8,9)            35.3864         estimate D2E/DX2                !
 ! D29   D(76,6,8,10)          151.0581         estimate D2E/DX2                !
 ! D30   D(76,6,8,11)          -88.4847         estimate D2E/DX2                !
 ! D31   D(77,6,8,9)           152.0604         estimate D2E/DX2                !
 ! D32   D(77,6,8,10)          -92.268          estimate D2E/DX2                !
 ! D33   D(77,6,8,11)           28.1892         estimate D2E/DX2                !
 ! D34   D(6,8,11,12)         -178.2341         estimate D2E/DX2                !
 ! D35   D(6,8,11,74)          -56.4668         estimate D2E/DX2                !
 ! D36   D(6,8,11,75)           59.4658         estimate D2E/DX2                !
 ! D37   D(9,8,11,12)           58.0093         estimate D2E/DX2                !
 ! D38   D(9,8,11,74)          179.7766         estimate D2E/DX2                !
 ! D39   D(9,8,11,75)          -64.2907         estimate D2E/DX2                !
 ! D40   D(10,8,11,12)         -56.9356         estimate D2E/DX2                !
 ! D41   D(10,8,11,74)          64.8317         estimate D2E/DX2                !
 ! D42   D(10,8,11,75)        -179.2357         estimate D2E/DX2                !
 ! D43   D(8,11,12,13)         -66.7226         estimate D2E/DX2                !
 ! D44   D(8,11,12,14)         175.5356         estimate D2E/DX2                !
 ! D45   D(8,11,12,28)          50.575          estimate D2E/DX2                !
 ! D46   D(74,11,12,13)        171.8149         estimate D2E/DX2                !
 ! D47   D(74,11,12,14)         54.0731         estimate D2E/DX2                !
 ! D48   D(74,11,12,28)        -70.8875         estimate D2E/DX2                !
 ! D49   D(75,11,12,13)         56.6709         estimate D2E/DX2                !
 ! D50   D(75,11,12,14)        -61.0709         estimate D2E/DX2                !
 ! D51   D(75,11,12,28)        173.9685         estimate D2E/DX2                !
 ! D52   D(11,12,14,15)        176.7241         estimate D2E/DX2                !
 ! D53   D(11,12,14,16)        -63.4563         estimate D2E/DX2                !
 ! D54   D(11,12,14,17)         56.2449         estimate D2E/DX2                !
 ! D55   D(13,12,14,15)         59.2848         estimate D2E/DX2                !
 ! D56   D(13,12,14,16)        179.1045         estimate D2E/DX2                !
 ! D57   D(13,12,14,17)        -61.1944         estimate D2E/DX2                !
 ! D58   D(28,12,14,15)        -57.8017         estimate D2E/DX2                !
 ! D59   D(28,12,14,16)         62.0179         estimate D2E/DX2                !
 ! D60   D(28,12,14,17)       -178.2809         estimate D2E/DX2                !
 ! D61   D(11,12,28,29)         53.3633         estimate D2E/DX2                !
 ! D62   D(11,12,28,30)       -124.4378         estimate D2E/DX2                !
 ! D63   D(13,12,28,29)        170.9359         estimate D2E/DX2                !
 ! D64   D(13,12,28,30)         -6.8653         estimate D2E/DX2                !
 ! D65   D(14,12,28,29)        -71.3967         estimate D2E/DX2                !
 ! D66   D(14,12,28,30)        110.8022         estimate D2E/DX2                !
 ! D67   D(2,18,19,21)         175.3101         estimate D2E/DX2                !
 ! D68   D(2,18,19,22)          -3.6314         estimate D2E/DX2                !
 ! D69   D(20,18,19,21)         -0.1799         estimate D2E/DX2                !
 ! D70   D(20,18,19,22)       -179.1214         estimate D2E/DX2                !
 ! D71   D(2,18,20,23)        -173.8811         estimate D2E/DX2                !
 ! D72   D(2,18,20,24)           4.1447         estimate D2E/DX2                !
 ! D73   D(19,18,20,23)          1.6327         estimate D2E/DX2                !
 ! D74   D(19,18,20,24)        179.6584         estimate D2E/DX2                !
 ! D75   D(18,19,21,25)         -0.7195         estimate D2E/DX2                !
 ! D76   D(18,19,21,26)       -178.7254         estimate D2E/DX2                !
 ! D77   D(22,19,21,25)        178.233          estimate D2E/DX2                !
 ! D78   D(22,19,21,26)          0.2271         estimate D2E/DX2                !
 ! D79   D(18,20,23,25)         -2.1855         estimate D2E/DX2                !
 ! D80   D(18,20,23,27)        176.5267         estimate D2E/DX2                !
 ! D81   D(24,20,23,25)        179.7821         estimate D2E/DX2                !
 ! D82   D(24,20,23,27)         -1.5057         estimate D2E/DX2                !
 ! D83   D(19,21,25,23)          0.1921         estimate D2E/DX2                !
 ! D84   D(19,21,25,41)       -175.7924         estimate D2E/DX2                !
 ! D85   D(26,21,25,23)        178.1894         estimate D2E/DX2                !
 ! D86   D(26,21,25,41)          2.2049         estimate D2E/DX2                !
 ! D87   D(20,23,25,21)          1.232          estimate D2E/DX2                !
 ! D88   D(20,23,25,41)        177.334          estimate D2E/DX2                !
 ! D89   D(27,23,25,21)       -177.5201         estimate D2E/DX2                !
 ! D90   D(27,23,25,41)         -1.4182         estimate D2E/DX2                !
 ! D91   D(21,25,41,42)         22.3677         estimate D2E/DX2                !
 ! D92   D(21,25,41,43)        142.6613         estimate D2E/DX2                !
 ! D93   D(21,25,41,69)        -96.5386         estimate D2E/DX2                !
 ! D94   D(23,25,41,42)       -153.6009         estimate D2E/DX2                !
 ! D95   D(23,25,41,43)        -33.3073         estimate D2E/DX2                !
 ! D96   D(23,25,41,69)         87.4927         estimate D2E/DX2                !
 ! D97   D(12,28,29,31)       -176.7335         estimate D2E/DX2                !
 ! D98   D(12,28,29,32)          0.6982         estimate D2E/DX2                !
 ! D99   D(30,28,29,31)          1.1234         estimate D2E/DX2                !
 ! D100  D(30,28,29,32)        178.5551         estimate D2E/DX2                !
 ! D101  D(12,28,30,33)        177.5251         estimate D2E/DX2                !
 ! D102  D(12,28,30,34)         -1.0077         estimate D2E/DX2                !
 ! D103  D(29,28,30,33)         -0.3467         estimate D2E/DX2                !
 ! D104  D(29,28,30,34)       -178.8794         estimate D2E/DX2                !
 ! D105  D(28,29,31,35)         -1.3475         estimate D2E/DX2                !
 ! D106  D(28,29,31,36)        176.9438         estimate D2E/DX2                !
 ! D107  D(32,29,31,35)       -178.808          estimate D2E/DX2                !
 ! D108  D(32,29,31,36)         -0.5166         estimate D2E/DX2                !
 ! D109  D(28,30,33,35)         -0.1979         estimate D2E/DX2                !
 ! D110  D(28,30,33,37)       -178.2392         estimate D2E/DX2                !
 ! D111  D(34,30,33,35)        178.3339         estimate D2E/DX2                !
 ! D112  D(34,30,33,37)          0.2926         estimate D2E/DX2                !
 ! D113  D(29,31,35,33)          0.765          estimate D2E/DX2                !
 ! D114  D(29,31,35,38)        176.9259         estimate D2E/DX2                !
 ! D115  D(36,31,35,33)       -177.5673         estimate D2E/DX2                !
 ! D116  D(36,31,35,38)         -1.4064         estimate D2E/DX2                !
 ! D117  D(30,33,35,31)         -0.0075         estimate D2E/DX2                !
 ! D118  D(30,33,35,38)       -176.1087         estimate D2E/DX2                !
 ! D119  D(37,33,35,31)        178.0236         estimate D2E/DX2                !
 ! D120  D(37,33,35,38)          1.9224         estimate D2E/DX2                !
 ! D121  D(31,35,38,39)       -153.335          estimate D2E/DX2                !
 ! D122  D(31,35,38,40)        -32.8866         estimate D2E/DX2                !
 ! D123  D(31,35,38,68)         88.2922         estimate D2E/DX2                !
 ! D124  D(33,35,38,39)         22.732          estimate D2E/DX2                !
 ! D125  D(33,35,38,40)        143.1804         estimate D2E/DX2                !
 ! D126  D(33,35,38,68)        -95.6408         estimate D2E/DX2                !
 ! D127  D(35,38,73,61)        -54.7456         estimate D2E/DX2                !
 ! D128  D(35,38,73,70)         90.4563         estimate D2E/DX2                !
 ! D129  D(35,38,73,80)       -167.3383         estimate D2E/DX2                !
 ! D130  D(39,38,73,61)         68.4282         estimate D2E/DX2                !
 ! D131  D(39,38,73,70)       -146.3699         estimate D2E/DX2                !
 ! D132  D(39,38,73,80)        -44.1645         estimate D2E/DX2                !
 ! D133  D(68,38,73,61)       -179.2987         estimate D2E/DX2                !
 ! D134  D(68,38,73,70)        -34.0969         estimate D2E/DX2                !
 ! D135  D(68,38,73,80)         68.1086         estimate D2E/DX2                !
 ! D136  D(35,38,68,44)       -171.9825         estimate D2E/DX2                !
 ! D137  D(35,38,68,48)         68.8696         estimate D2E/DX2                !
 ! D138  D(35,38,68,52)        -52.2681         estimate D2E/DX2                !
 ! D139  D(39,38,68,44)         66.2738         estimate D2E/DX2                !
 ! D140  D(39,38,68,48)        -52.8742         estimate D2E/DX2                !
 ! D141  D(39,38,68,52)       -174.0118         estimate D2E/DX2                !
 ! D142  D(40,38,68,44)        -48.4593         estimate D2E/DX2                !
 ! D143  D(40,38,68,48)       -167.6072         estimate D2E/DX2                !
 ! D144  D(40,38,68,52)         71.2552         estimate D2E/DX2                !
 ! D145  D(25,41,71,70)        100.2651         estimate D2E/DX2                !
 ! D146  D(42,41,71,70)       -139.0746         estimate D2E/DX2                !
 ! D147  D(69,41,71,70)        -26.0576         estimate D2E/DX2                !
 ! D148  D(25,41,69,56)       -164.3843         estimate D2E/DX2                !
 ! D149  D(25,41,69,60)        -45.2579         estimate D2E/DX2                !
 ! D150  D(25,41,69,64)         76.2609         estimate D2E/DX2                !
 ! D151  D(42,41,69,56)         73.217          estimate D2E/DX2                !
 ! D152  D(42,41,69,60)       -167.6565         estimate D2E/DX2                !
 ! D153  D(42,41,69,64)        -46.1378         estimate D2E/DX2                !
 ! D154  D(43,41,69,56)        -42.1239         estimate D2E/DX2                !
 ! D155  D(43,41,69,60)         77.0026         estimate D2E/DX2                !
 ! D156  D(43,41,69,64)       -161.4787         estimate D2E/DX2                !
 ! D157  D(45,44,47,72)        -87.922          estimate D2E/DX2                !
 ! D158  D(46,44,47,72)        149.6969         estimate D2E/DX2                !
 ! D159  D(68,44,47,72)         30.3474         estimate D2E/DX2                !
 ! D160  D(45,44,68,38)       -171.6817         estimate D2E/DX2                !
 ! D161  D(45,44,68,48)        -52.3916         estimate D2E/DX2                !
 ! D162  D(45,44,68,52)         66.6064         estimate D2E/DX2                !
 ! D163  D(46,44,68,38)        -52.5434         estimate D2E/DX2                !
 ! D164  D(46,44,68,48)         66.7466         estimate D2E/DX2                !
 ! D165  D(46,44,68,52)       -174.2553         estimate D2E/DX2                !
 ! D166  D(47,44,68,38)         68.6751         estimate D2E/DX2                !
 ! D167  D(47,44,68,48)       -172.0348         estimate D2E/DX2                !
 ! D168  D(47,44,68,52)        -53.0368         estimate D2E/DX2                !
 ! D169  D(44,47,72,70)        -67.0545         estimate D2E/DX2                !
 ! D170  D(49,48,68,38)        -59.0312         estimate D2E/DX2                !
 ! D171  D(49,48,68,44)       -176.9533         estimate D2E/DX2                !
 ! D172  D(49,48,68,52)         64.022          estimate D2E/DX2                !
 ! D173  D(50,48,68,38)         61.1939         estimate D2E/DX2                !
 ! D174  D(50,48,68,44)        -56.7282         estimate D2E/DX2                !
 ! D175  D(50,48,68,52)       -175.7529         estimate D2E/DX2                !
 ! D176  D(51,48,68,38)       -179.0106         estimate D2E/DX2                !
 ! D177  D(51,48,68,44)         63.0674         estimate D2E/DX2                !
 ! D178  D(51,48,68,52)        -55.9574         estimate D2E/DX2                !
 ! D179  D(53,52,68,38)        -51.6838         estimate D2E/DX2                !
 ! D180  D(53,52,68,44)         67.2389         estimate D2E/DX2                !
 ! D181  D(53,52,68,48)       -173.3396         estimate D2E/DX2                !
 ! D182  D(54,52,68,38)         68.8129         estimate D2E/DX2                !
 ! D183  D(54,52,68,44)       -172.2644         estimate D2E/DX2                !
 ! D184  D(54,52,68,48)        -52.8429         estimate D2E/DX2                !
 ! D185  D(55,52,68,38)       -172.0802         estimate D2E/DX2                !
 ! D186  D(55,52,68,44)        -53.1575         estimate D2E/DX2                !
 ! D187  D(55,52,68,48)         66.264          estimate D2E/DX2                !
 ! D188  D(57,56,69,41)       -172.0794         estimate D2E/DX2                !
 ! D189  D(57,56,69,60)         66.4909         estimate D2E/DX2                !
 ! D190  D(57,56,69,64)        -52.596          estimate D2E/DX2                !
 ! D191  D(58,56,69,41)        -51.6101         estimate D2E/DX2                !
 ! D192  D(58,56,69,60)       -173.0398         estimate D2E/DX2                !
 ! D193  D(58,56,69,64)         67.8733         estimate D2E/DX2                !
 ! D194  D(59,56,69,41)         68.677          estimate D2E/DX2                !
 ! D195  D(59,56,69,60)        -52.7527         estimate D2E/DX2                !
 ! D196  D(59,56,69,64)       -171.8396         estimate D2E/DX2                !
 ! D197  D(62,60,61,73)       -130.1095         estimate D2E/DX2                !
 ! D198  D(63,60,61,73)        106.0289         estimate D2E/DX2                !
 ! D199  D(69,60,61,73)        -11.1109         estimate D2E/DX2                !
 ! D200  D(61,60,69,41)        -50.5585         estimate D2E/DX2                !
 ! D201  D(61,60,69,56)         67.9708         estimate D2E/DX2                !
 ! D202  D(61,60,69,64)       -172.55           estimate D2E/DX2                !
 ! D203  D(62,60,69,41)         70.3933         estimate D2E/DX2                !
 ! D204  D(62,60,69,56)       -171.0774         estimate D2E/DX2                !
 ! D205  D(62,60,69,64)        -51.5982         estimate D2E/DX2                !
 ! D206  D(63,60,69,41)       -169.0542         estimate D2E/DX2                !
 ! D207  D(63,60,69,56)        -50.5249         estimate D2E/DX2                !
 ! D208  D(63,60,69,64)         68.9544         estimate D2E/DX2                !
 ! D209  D(60,61,73,40)        128.7923         estimate D2E/DX2                !
 ! D210  D(60,61,73,70)        -10.6655         estimate D2E/DX2                !
 ! D211  D(60,61,73,80)       -102.6098         estimate D2E/DX2                !
 ! D212  D(65,64,69,41)        -57.5772         estimate D2E/DX2                !
 ! D213  D(65,64,69,56)       -175.5514         estimate D2E/DX2                !
 ! D214  D(65,64,69,60)         65.735          estimate D2E/DX2                !
 ! D215  D(66,64,69,41)         62.5189         estimate D2E/DX2                !
 ! D216  D(66,64,69,56)        -55.4553         estimate D2E/DX2                !
 ! D217  D(66,64,69,60)       -174.1689         estimate D2E/DX2                !
 ! D218  D(67,64,69,41)       -177.4021         estimate D2E/DX2                !
 ! D219  D(67,64,69,56)         64.6237         estimate D2E/DX2                !
 ! D220  D(67,64,69,60)        -54.0899         estimate D2E/DX2                !
 ! D221  D(72,70,71,43)        130.6506         estimate D2E/DX2                !
 ! D222  D(73,70,71,43)        -51.3422         estimate D2E/DX2                !
 ! D223  D(71,70,72,47)        108.5901         estimate D2E/DX2                !
 ! D224  D(73,70,72,47)        -69.3845         estimate D2E/DX2                !
 ! D225  D(71,70,73,40)        -78.3674         estimate D2E/DX2                !
 ! D226  D(71,70,73,61)         78.8727         estimate D2E/DX2                !
 ! D227  D(71,70,73,80)        152.876          estimate D2E/DX2                !
 ! D228  D(72,70,73,40)         99.68           estimate D2E/DX2                !
 ! D229  D(72,70,73,61)       -103.0798         estimate D2E/DX2                !
 ! D230  D(72,70,73,80)        -29.0765         estimate D2E/DX2                !
 ! D231  D(40,73,80,78)       -130.697          estimate D2E/DX2                !
 ! D232  D(61,73,80,78)         85.6571         estimate D2E/DX2                !
 ! D233  D(70,73,80,78)        -34.2925         estimate D2E/DX2                !
 ! D234  D(79,78,80,73)         52.4633         estimate D2E/DX2                !
 --------------------------------------------------------------------------------
 Trust Radius=3.00D-01 FncErr=1.00D-07 GrdErr=1.00D-06 EigMax=2.50D+02 EigMin=1.00D-04
 Number of steps in this run=    480 maximum allowed number of steps=    480.
 GradGradGradGradGradGradGradGradGradGradGradGradGradGradGradGradGradGrad

 Leave Link  103 at Fri Mar  8 14:42:22 2024, MaxMem=  2013265920 cpu:               0.4 elap:               0.1
 (Enter /packages/apps/gaussian/g16/g16/l202.exe)
 Stoichiometry    C28H46N2O4
 Framework group  C1[X(C28H46N2O4)]
 Deg. of freedom   234
 Full point group                 C1      NOp   1
 Largest Abelian subgroup         C1      NOp   1
 Largest concise Abelian subgroup C1      NOp   1
                         Standard orientation:                         
 ---------------------------------------------------------------------
 Center     Atomic      Atomic             Coordinates (Angstroms)
 Number     Number       Type             X           Y           Z
 ---------------------------------------------------------------------
      1          6           0        4.736780   -3.356255   -1.638568
      2          6           0        3.983778   -2.053597   -1.368550
      3          1           0        4.129969   -4.053599   -2.216381
      4          1           0        5.651044   -3.153724   -2.197519
      5          1           0        5.027854   -3.851487   -0.710623
      6          6           0        4.812988   -1.111401   -0.471728
      7          1           0        3.833102   -1.550479   -2.327954
      8          6           0        4.299486    0.330067   -0.472829
      9          1           0        4.751117    0.882094   -1.302399
     10          1           0        3.227353    0.327123   -0.664031
     11          6           0        4.532935    1.075697    0.835321
     12          6           0        3.975298    2.507947    0.838147
     13          1           0        4.558209    3.088449    0.117040
     14          6           0        4.146214    3.156627    2.214253
     15          1           0        3.804940    4.192002    2.206450
     16          1           0        3.567788    2.619638    2.968195
     17          1           0        5.193461    3.142780    2.520692
     18          6           0        2.613604   -2.272531   -0.754241
     19          6           0        2.424273   -3.179530    0.286330
     20          6           0        1.522981   -1.500574   -1.150857
     21          6           0        1.190463   -3.304057    0.906702
     22          1           0        3.249877   -3.787119    0.633034
     23          6           0        0.295329   -1.597711   -0.516902
     24          1           0        1.644078   -0.783654   -1.953686
     25          6           0        0.113289   -2.515241    0.515381
     26          1           0        1.076331   -4.002956    1.727781
     27          1           0       -0.538048   -0.955698   -0.790695
     28          6           0        2.529636    2.559028    0.383052
     29          6           0        1.553047    1.763684    0.981765
     30          6           0        2.149388    3.371930   -0.678740
     31          6           0        0.245615    1.756318    0.527468
     32          1           0        1.822954    1.102306    1.795754
     33          6           0        0.837604    3.384195   -1.132262
     34          1           0        2.892054    3.985981   -1.173451
     35          6           0       -0.126995    2.579046   -0.536326
     36          1           0       -0.501927    1.095947    0.967833
     37          1           0        0.573825    4.005891   -1.980539
     38          6           0       -1.528003    2.517239   -1.070487
     39          1           0       -1.555364    2.816459   -2.118226
     40          1           0       -1.934541    1.502733   -0.989916
     41          6           0       -1.204539   -2.561035    1.226819
     42          1           0       -1.090825   -2.938934    2.242861
     43          1           0       -1.638147   -1.550431    1.273051
     44          6           0       -3.889315    3.109251   -0.897731
     45          1           0       -4.583984    3.859039   -0.524546
     46          1           0       -3.857682    3.138400   -1.984487
     47          1           0       -4.174689    2.113806   -0.533124
     48          6           0       -2.203943    4.855617   -0.699343
     49          1           0       -1.192761    5.075329   -0.367842
     50          1           0       -2.283687    5.002733   -1.773944
     51          1           0       -2.911180    5.501722   -0.185408
     52          6           0       -2.515471    3.271020    1.109312
     53          1           0       -2.632769    2.213913    1.363052
     54          1           0       -1.570024    3.645749    1.491176
     55          1           0       -3.341173    3.854254    1.509850
     56          6           0       -3.579268   -3.109463    1.172709
     57          1           0       -4.314241   -3.836507    0.836399
     58          1           0       -3.492877   -3.120782    2.256301
     59          1           0       -3.863307   -2.119980    0.826950
     60          6           0       -2.324750   -3.289647   -0.896604
     61          1           0       -2.419885   -2.220522   -1.088575
     62          1           0       -1.422353   -3.698950   -1.340788
     63          1           0       -3.208352   -3.811565   -1.254543
     64          6           0       -1.942461   -4.888267    0.886817
     65          1           0       -0.942933   -5.112976    0.523370
     66          1           0       -1.991732   -5.044088    1.962015
     67          1           0       -2.669501   -5.523456    0.386562
     68          7           0       -2.524790    3.443923   -0.378364
     69          7           0       -2.252708   -3.470711    0.586137
     70          6           0       -3.140491    0.120887    0.446240
     71          8           0       -2.306109    0.193722    1.422120
     72          8           0       -4.351319    0.480788    0.571874
     73          8           0       -2.701559   -0.303153   -0.714916
     74          1           0        4.069923    0.508018    1.648738
     75          1           0        5.601212    1.118498    1.066551
     76          1           0        5.857326   -1.138241   -0.792816
     77          1           0        4.795766   -1.512427    0.546326
     78          8           0       -5.029106   -1.447731   -1.531248
     79          1           0       -5.530815   -0.949030   -0.880332
     80          1           0       -4.162990   -0.993208   -1.426105
 ---------------------------------------------------------------------
 Rotational constants (GHZ):           0.1282635           0.1041554           0.0650559
 Leave Link  202 at Fri Mar  8 14:42:23 2024, MaxMem=  2013265920 cpu:               1.0 elap:               0.1
 (Enter /packages/apps/gaussian/g16/g16/l301.exe)
 Standard basis: 6-311+G(2d,2p) (5D, 7F)
 Ernie: Thresh=  0.10000D-02 Tol=  0.10000D-05 Strict=F.
 There are  1400 symmetry adapted cartesian basis functions of A   symmetry.
 There are  1332 symmetry adapted basis functions of A   symmetry.
  1332 basis functions,  1934 primitive gaussians,  1400 cartesian basis functions
   130 alpha electrons      130 beta electrons
       nuclear repulsion energy      4000.9736081239 Hartrees.
 IExCor= 4639 DFT=T Ex+Corr=wB97XD ExCW=0 ScaHFX=  1.000000
 ScaDFX=  1.000000  1.000000  1.000000  1.000000 ScalE2=  1.000000  1.000000
 IRadAn=      5 IRanWt=     -1 IRanGd=            0 ICorTp=0 IEmpDi=121
 HFx  wShort=  0.000000 wLong=  0.200000 cFull=  0.222036 cShort=  0.000000 cLong=  0.777964
 DFx  wShort=  0.000000 wLong=  0.200000 cFull=  0.000000 cShort=  0.000000 cLong=  1.000000
 NAtoms=   80 NActive=   80 NUniq=   80 SFac= 1.00D+00 NAtFMM=   60 NAOKFM=T Big=T
 Integral buffers will be    131072 words long.
 Raffenetti 2 integral format.
 Two-electron integral symmetry is turned on.
 R6Disp:  Grimme-D2 Dispersion energy=       -0.0897532203 Hartrees.
 Nuclear repulsion after empirical dispersion term =     4000.8838549036 Hartrees.
 Leave Link  301 at Fri Mar  8 14:42:24 2024, MaxMem=  2013265920 cpu:               2.2 elap:               0.3
 (Enter /packages/apps/gaussian/g16/g16/l302.exe)
 NPDir=0 NMtPBC=     1 NCelOv=     1 NCel=       1 NClECP=     1 NCelD=      1
         NCelK=      1 NCelE2=     1 NClLst=     1 CellRange=     0.0.
 One-electron integrals computed using PRISM.
 One-electron integral symmetry used in STVInt
 NBasis=  1332 RedAO= T EigKep=  1.07D-06  NBF=  1332
 NBsUse=  1324 1.00D-06 EigRej=  8.96D-07 NBFU=  1324
 Precomputing XC quadrature grid using
 IXCGrd= 4 IRadAn=           5 IRanWt=          -1 IRanGd=           0 AccXCQ= 0.00D+00.
 Generated NRdTot=       0 NPtTot=           0 NUsed=           0 NTot=          32
 NSgBfM=  1358  1358  1358  1358  1358 MxSgAt=    80 MxSgA2=    80.
 Leave Link  302 at Fri Mar  8 14:42:28 2024, MaxMem=  2013265920 cpu:              48.4 elap:               3.0
 (Enter /packages/apps/gaussian/g16/g16/l303.exe)
 DipDrv:  MaxL=1.
 Leave Link  303 at Fri Mar  8 14:42:29 2024, MaxMem=  2013265920 cpu:               6.2 elap:               0.7
 (Enter /packages/apps/gaussian/g16/g16/l401.exe)
 ExpMin= 4.38D-02 ExpMax= 8.59D+03 ExpMxC= 1.30D+03 IAcc=3 IRadAn=         5 AccDes= 0.00D+00
 Harris functional with IExCor= 4639 and IRadAn=       5 diagonalized for initial guess.
 HarFok:  IExCor= 4639 AccDes= 0.00D+00 IRadAn=         5 IDoV= 1 UseB2=F ITyADJ=14
 ICtDFT=  3500011 ScaDFX=  1.000000  1.000000  1.000000  1.000000
 FoFCou: FMM=F IPFlag=           0 FMFlag=      100000 FMFlg1=        2001
         NFxFlg=           0 DoJE=T BraDBF=F KetDBF=T FulRan=T
         wScrn=  0.000000 ICntrl=       500 IOpCl=  0 I1Cent=   200000004 NGrid=           0
         NMat0=    1 NMatS0=      1 NMatT0=    0 NMatD0=    1 NMtDS0=    0 NMtDT0=    0
 Petite list used in FoFCou.
 Harris En= -1437.71921314530    
 JPrj=0 DoOrth=F DoCkMO=F.
 Leave Link  401 at Fri Mar  8 14:42:38 2024, MaxMem=  2013265920 cpu:             149.0 elap:               7.7
 (Enter /packages/apps/gaussian/g16/g16/l502.exe)
 Integral symmetry usage will be decided dynamically.
 Closed shell SCF:
 Using DIIS extrapolation, IDIIS=  1040.
 NGot=  2013265920 LenX=  2009305068 LenY=  2007343668
 Requested convergence on RMS density matrix=1.00D-08 within 128 cycles.
 Requested convergence on MAX density matrix=1.00D-06.
 Requested convergence on             energy=1.00D-06.
 No special actions if energy rises.
 Fock matrices will be formed incrementally for  20 cycles.

 Cycle   1  Pass 1  IDiag  1:
 FoFJK:  IHMeth= 1 ICntrl=       0 DoSepK=T KAlg= 0 I1Cent=           0 FoldK=F
 IRaf=         1 NMat=       1 IRICut=       1 DoRegI=T DoRafI=F ISym2E= 0 IDoP0=0 IntGTp=1.
 FoFCou: FMM=T IPFlag=           0 FMFlag=      100000 FMFlg1=        2001
         NFxFlg=           0 DoJE=T BraDBF=F KetDBF=F FulRan=T
         wScrn=  0.000000 ICntrl=       500 IOpCl=  0 I1Cent=           0 NGrid=           0
         NMat0=    1 NMatS0=      1 NMatT0=    0 NMatD0=    1 NMtDS0=    0 NMtDT0=    0
 Symmetry not used in FoFCou.
 FMM levels:  10  Number of levels for PrismC:   9
 E= -1504.51219554872    
 DIIS: error= 4.20D-02 at cycle   1 NSaved=   1.
 NSaved= 1 IEnMin= 1 EnMin= -1504.51219554872     IErMin= 1 ErrMin= 4.20D-02
 ErrMax= 4.20D-02  0.00D+00 EMaxC= 1.00D-01 BMatC= 3.30D+00 BMatP= 3.30D+00
 IDIUse=3 WtCom= 5.80D-01 WtEn= 4.20D-01
 Coeff-Com:  0.100D+01
 Coeff-En:   0.100D+01
 Coeff:      0.100D+01
 Gap=     0.298 Goal=   None    Shift=    0.000
 GapD=    0.298 DampG=1.000 DampE=0.500 DampFc=0.5000 IDamp=-1.
 Damping current iteration by 5.00D-01
 RMSDP=4.24D-03 MaxDP=4.84D-01              OVMax= 1.16D-01

 Cycle   2  Pass 1  IDiag  1:
 RMSU=  1.48D-03    CP:  8.87D-01
 E= -1504.77282871357     Delta-E=       -0.260633164848 Rises=F Damp=T
 DIIS: error= 1.87D-02 at cycle   2 NSaved=   2.
 NSaved= 2 IEnMin= 2 EnMin= -1504.77282871357     IErMin= 2 ErrMin= 1.87D-02
 ErrMax= 1.87D-02  0.00D+00 EMaxC= 1.00D-01 BMatC= 6.83D-01 BMatP= 3.30D+00
 IDIUse=3 WtCom= 8.13D-01 WtEn= 1.87D-01
 Coeff-Com: -0.565D+00 0.157D+01
 Coeff-En:   0.000D+00 0.100D+01
 Coeff:     -0.459D+00 0.146D+01
 Gap=     0.281 Goal=   None    Shift=    0.000
 RMSDP=2.65D-03 MaxDP=4.87D-01 DE=-2.61D-01 OVMax= 1.10D-01

 Cycle   3  Pass 1  IDiag  1:
 RMSU=  1.30D-03    CP:  7.27D-01  1.58D+00
 E= -1504.91629709362     Delta-E=       -0.143468380056 Rises=F Damp=F
 DIIS: error= 1.22D-02 at cycle   3 NSaved=   3.
 NSaved= 3 IEnMin= 3 EnMin= -1504.91629709362     IErMin= 3 ErrMin= 1.22D-02
 ErrMax= 1.22D-02  0.00D+00 EMaxC= 1.00D-01 BMatC= 1.91D-01 BMatP= 6.83D-01
 IDIUse=3 WtCom= 8.78D-01 WtEn= 1.22D-01
 Coeff-Com: -0.355D+00 0.759D+00 0.596D+00
 Coeff-En:   0.000D+00 0.000D+00 0.100D+01
 Coeff:     -0.312D+00 0.666D+00 0.645D+00
 Gap=     0.272 Goal=   None    Shift=    0.000
 RMSDP=6.52D-04 MaxDP=1.16D-01 DE=-1.43D-01 OVMax= 5.18D-02

 Cycle   4  Pass 1  IDiag  1:
 RMSU=  3.74D-04    CP:  7.39D-01  1.82D+00  7.19D-01
 E= -1505.06354585729     Delta-E=       -0.147248763665 Rises=F Damp=F
 DIIS: error= 2.17D-03 at cycle   4 NSaved=   4.
 NSaved= 4 IEnMin= 4 EnMin= -1505.06354585729     IErMin= 4 ErrMin= 2.17D-03
 ErrMax= 2.17D-03  0.00D+00 EMaxC= 1.00D-01 BMatC= 7.02D-03 BMatP= 1.91D-01
 IDIUse=3 WtCom= 9.78D-01 WtEn= 2.17D-02
 Coeff-Com: -0.974D-01 0.209D+00 0.271D+00 0.618D+00
 Coeff-En:   0.000D+00 0.000D+00 0.000D+00 0.100D+01
 Coeff:     -0.953D-01 0.204D+00 0.265D+00 0.626D+00
 Gap=     0.266 Goal=   None    Shift=    0.000
 RMSDP=1.52D-04 MaxDP=1.84D-02 DE=-1.47D-01 OVMax= 8.64D-03

 Cycle   5  Pass 1  IDiag  1:
 RMSU=  1.17D-04    CP:  7.37D-01  1.81D+00  7.86D-01  9.41D-01
 E= -1505.06895879410     Delta-E=       -0.005412936808 Rises=F Damp=F
 DIIS: error= 1.97D-04 at cycle   5 NSaved=   5.
 NSaved= 5 IEnMin= 5 EnMin= -1505.06895879410     IErMin= 5 ErrMin= 1.97D-04
 ErrMax= 1.97D-04  0.00D+00 EMaxC= 1.00D-01 BMatC= 1.72D-04 BMatP= 7.02D-03
 IDIUse=3 WtCom= 9.98D-01 WtEn= 1.97D-03
 Coeff-Com:  0.141D-01-0.300D-01 0.176D-01 0.237D+00 0.762D+00
 Coeff-En:   0.000D+00 0.000D+00 0.000D+00 0.000D+00 0.100D+01
 Coeff:      0.140D-01-0.299D-01 0.176D-01 0.236D+00 0.762D+00
 Gap=     0.264 Goal=   None    Shift=    0.000
 RMSDP=5.92D-05 MaxDP=1.06D-02 DE=-5.41D-03 OVMax= 2.94D-03

 Cycle   6  Pass 1  IDiag  1:
 RMSU=  3.39D-05    CP:  7.37D-01  1.82D+00  8.00D-01  1.05D+00  1.01D+00
 E= -1505.06908424201     Delta-E=       -0.000125447914 Rises=F Damp=F
 DIIS: error= 1.07D-04 at cycle   6 NSaved=   6.
 NSaved= 6 IEnMin= 6 EnMin= -1505.06908424201     IErMin= 6 ErrMin= 1.07D-04
 ErrMax= 1.07D-04  0.00D+00 EMaxC= 1.00D-01 BMatC= 4.23D-05 BMatP= 1.72D-04
 IDIUse=3 WtCom= 9.99D-01 WtEn= 1.07D-03
 Coeff-Com:  0.170D-01-0.364D-01-0.177D-01 0.590D-01 0.406D+00 0.572D+00
 Coeff-En:   0.000D+00 0.000D+00 0.000D+00 0.000D+00 0.392D-01 0.961D+00
 Coeff:      0.170D-01-0.364D-01-0.177D-01 0.589D-01 0.406D+00 0.572D+00
 Gap=     0.264 Goal=   None    Shift=    0.000
 RMSDP=2.41D-05 MaxDP=4.35D-03 DE=-1.25D-04 OVMax= 1.24D-03

 Cycle   7  Pass 1  IDiag  1:
 RMSU=  1.23D-05    CP:  7.38D-01  1.82D+00  8.08D-01  1.08D+00  1.12D+00
                    CP:  9.30D-01
 E= -1505.06911769691     Delta-E=       -0.000033454904 Rises=F Damp=F
 DIIS: error= 2.10D-05 at cycle   7 NSaved=   7.
 NSaved= 7 IEnMin= 7 EnMin= -1505.06911769691     IErMin= 7 ErrMin= 2.10D-05
 ErrMax= 2.10D-05  0.00D+00 EMaxC= 1.00D-01 BMatC= 1.27D-06 BMatP= 4.23D-05
 IDIUse=1 WtCom= 1.00D+00 WtEn= 0.00D+00
 Coeff-Com:  0.384D-02-0.820D-02-0.620D-02-0.725D-03 0.585D-01 0.173D+00
 Coeff-Com:  0.780D+00
 Coeff:      0.384D-02-0.820D-02-0.620D-02-0.725D-03 0.585D-01 0.173D+00
 Coeff:      0.780D+00
 Gap=     0.265 Goal=   None    Shift=    0.000
 RMSDP=8.37D-06 MaxDP=1.58D-03 DE=-3.35D-05 OVMax= 3.11D-04

 Cycle   8  Pass 1  IDiag  1:
 RMSU=  3.42D-06    CP:  7.38D-01  1.82D+00  8.09D-01  1.10D+00  1.15D+00
                    CP:  1.02D+00  1.10D+00
 E= -1505.06911881241     Delta-E=       -0.000001115500 Rises=F Damp=F
 DIIS: error= 1.08D-05 at cycle   8 NSaved=   8.
 NSaved= 8 IEnMin= 8 EnMin= -1505.06911881241     IErMin= 8 ErrMin= 1.08D-05
 ErrMax= 1.08D-05  0.00D+00 EMaxC= 1.00D-01 BMatC= 2.98D-07 BMatP= 1.27D-06
 IDIUse=1 WtCom= 1.00D+00 WtEn= 0.00D+00
 Coeff-Com:  0.879D-04-0.148D-03-0.108D-02-0.649D-02-0.157D-01 0.189D-01
 Coeff-Com:  0.365D+00 0.639D+00
 Coeff:      0.879D-04-0.148D-03-0.108D-02-0.649D-02-0.157D-01 0.189D-01
 Coeff:      0.365D+00 0.639D+00
 Gap=     0.264 Goal=   None    Shift=    0.000
 RMSDP=2.50D-06 MaxDP=3.35D-04 DE=-1.12D-06 OVMax= 1.59D-04

 Cycle   9  Pass 1  IDiag  1:
 RMSU=  1.23D-06    CP:  7.38D-01  1.82D+00  8.10D-01  1.10D+00  1.16D+00
                    CP:  1.04D+00  1.18D+00  1.03D+00
 E= -1505.06911909200     Delta-E=       -0.000000279590 Rises=F Damp=F
 DIIS: error= 2.34D-06 at cycle   9 NSaved=   9.
 NSaved= 9 IEnMin= 9 EnMin= -1505.06911909200     IErMin= 9 ErrMin= 2.34D-06
 ErrMax= 2.34D-06  0.00D+00 EMaxC= 1.00D-01 BMatC= 2.64D-08 BMatP= 2.98D-07
 IDIUse=1 WtCom= 1.00D+00 WtEn= 0.00D+00
 Coeff-Com: -0.434D-03 0.934D-03 0.359D-03-0.246D-02-0.132D-01-0.141D-01
 Coeff-Com:  0.467D-01 0.246D+00 0.737D+00
 Coeff:     -0.434D-03 0.934D-03 0.359D-03-0.246D-02-0.132D-01-0.141D-01
 Coeff:      0.467D-01 0.246D+00 0.737D+00
 Gap=     0.264 Goal=   None    Shift=    0.000
 RMSDP=1.31D-06 MaxDP=2.43D-04 DE=-2.80D-07 OVMax= 6.08D-05

 Cycle  10  Pass 1  IDiag  1:
 RMSU=  4.58D-07    CP:  7.38D-01  1.82D+00  8.10D-01  1.10D+00  1.17D+00
                    CP:  1.05D+00  1.22D+00  1.14D+00  1.14D+00
 E= -1505.06911913125     Delta-E=       -0.000000039247 Rises=F Damp=F
 DIIS: error= 1.00D-06 at cycle  10 NSaved=  10.
 NSaved=10 IEnMin=10 EnMin= -1505.06911913125     IErMin=10 ErrMin= 1.00D-06
 ErrMax= 1.00D-06  0.00D+00 EMaxC= 1.00D-01 BMatC= 2.59D-09 BMatP= 2.64D-08
 IDIUse=1 WtCom= 1.00D+00 WtEn= 0.00D+00
 Coeff-Com: -0.118D-03 0.246D-03 0.215D-03 0.135D-03-0.151D-02-0.600D-02
 Coeff-Com: -0.353D-01-0.237D-01 0.185D+00 0.881D+00
 Coeff:     -0.118D-03 0.246D-03 0.215D-03 0.135D-03-0.151D-02-0.600D-02
 Coeff:     -0.353D-01-0.237D-01 0.185D+00 0.881D+00
 Gap=     0.264 Goal=   None    Shift=    0.000
 RMSDP=4.98D-07 MaxDP=6.81D-05 DE=-3.92D-08 OVMax= 3.66D-05

 Cycle  11  Pass 1  IDiag  1:
 RMSU=  1.58D-07    CP:  7.38D-01  1.82D+00  8.10D-01  1.10D+00  1.17D+00
                    CP:  1.05D+00  1.24D+00  1.20D+00  1.31D+00  1.25D+00
 E= -1505.06911913809     Delta-E=       -0.000000006837 Rises=F Damp=F
 DIIS: error= 4.81D-07 at cycle  11 NSaved=  11.
 NSaved=11 IEnMin=11 EnMin= -1505.06911913809     IErMin=11 ErrMin= 4.81D-07
 ErrMax= 4.81D-07  0.00D+00 EMaxC= 1.00D-01 BMatC= 6.21D-10 BMatP= 2.59D-09
 IDIUse=1 WtCom= 1.00D+00 WtEn= 0.00D+00
 Coeff-Com:  0.148D-04-0.337D-04 0.285D-04 0.380D-03 0.124D-02-0.463D-03
 Coeff-Com: -0.203D-01-0.447D-01-0.357D-01 0.341D+00 0.759D+00
 Coeff:      0.148D-04-0.337D-04 0.285D-04 0.380D-03 0.124D-02-0.463D-03
 Coeff:     -0.203D-01-0.447D-01-0.357D-01 0.341D+00 0.759D+00
 Gap=     0.264 Goal=   None    Shift=    0.000
 RMSDP=1.56D-07 MaxDP=2.08D-05 DE=-6.84D-09 OVMax= 1.72D-05

 Cycle  12  Pass 1  IDiag  1:
 RMSU=  8.01D-08    CP:  7.38D-01  1.82D+00  8.10D-01  1.10D+00  1.17D+00
                    CP:  1.05D+00  1.24D+00  1.22D+00  1.37D+00  1.36D+00
                    CP:  1.21D+00
 E= -1505.06911913938     Delta-E=       -0.000000001297 Rises=F Damp=F
 DIIS: error= 2.06D-07 at cycle  12 NSaved=  12.
 NSaved=12 IEnMin=12 EnMin= -1505.06911913938     IErMin=12 ErrMin= 2.06D-07
 ErrMax= 2.06D-07  0.00D+00 EMaxC= 1.00D-01 BMatC= 1.01D-10 BMatP= 6.21D-10
 IDIUse=1 WtCom= 1.00D+00 WtEn= 0.00D+00
 Coeff-Com:  0.219D-04-0.465D-04-0.235D-04 0.104D-03 0.649D-03 0.866D-03
 Coeff-Com:  0.374D-03-0.887D-02-0.461D-01-0.633D-01 0.250D+00 0.867D+00
 Coeff:      0.219D-04-0.465D-04-0.235D-04 0.104D-03 0.649D-03 0.866D-03
 Coeff:      0.374D-03-0.887D-02-0.461D-01-0.633D-01 0.250D+00 0.867D+00
 Gap=     0.264 Goal=   None    Shift=    0.000
 RMSDP=6.66D-08 MaxDP=9.96D-06 DE=-1.30D-09 OVMax= 8.83D-06

 Cycle  13  Pass 1  IDiag  1:
 RMSU=  3.38D-08    CP:  7.38D-01  1.82D+00  8.10D-01  1.10D+00  1.17D+00
                    CP:  1.05D+00  1.24D+00  1.22D+00  1.39D+00  1.42D+00
                    CP:  1.40D+00  1.30D+00
 E= -1505.06911913975     Delta-E=       -0.000000000367 Rises=F Damp=F
 DIIS: error= 8.29D-08 at cycle  13 NSaved=  13.
 NSaved=13 IEnMin=13 EnMin= -1505.06911913975     IErMin=13 ErrMin= 8.29D-08
 ErrMax= 8.29D-08  0.00D+00 EMaxC= 1.00D-01 BMatC= 2.20D-11 BMatP= 1.01D-10
 IDIUse=1 WtCom= 1.00D+00 WtEn= 0.00D+00
 Coeff-Com:  0.606D-05-0.125D-04-0.133D-04-0.193D-04 0.593D-04 0.409D-03
 Coeff-Com:  0.343D-02 0.403D-02-0.133D-01-0.832D-01-0.179D-01 0.364D+00
 Coeff-Com:  0.742D+00
 Coeff:      0.606D-05-0.125D-04-0.133D-04-0.193D-04 0.593D-04 0.409D-03
 Coeff:      0.343D-02 0.403D-02-0.133D-01-0.832D-01-0.179D-01 0.364D+00
 Coeff:      0.742D+00
 Gap=     0.264 Goal=   None    Shift=    0.000
 RMSDP=2.33D-08 MaxDP=3.26D-06 DE=-3.67D-10 OVMax= 3.25D-06

 Cycle  14  Pass 1  IDiag  1:
 RMSU=  1.22D-08    CP:  7.38D-01  1.82D+00  8.10D-01  1.10D+00  1.17D+00
[...]
 ,0.00000037,-0.00000692,-0.00000517,0.00000105,0.00000295,0.00000430,0
 .00000683,-0.00001203,0.00000264,-0.00000148,-0.00000355,-0.00001099,0
 .00000550,0.00000872,0.00000446,-0.00000488,-0.00000398,0.00000408,0.0
 0000004,0.00000489,0.00000265,-0.00000952,0.00000069,-0.00002187,0.000
 00196,-0.00000019,0.00000867,-0.00000423,-0.00000298,0.00001442,0.0000
 0943,-0.00000157,-0.00000665,-0.00000187,-0.00000391,-0.00000534,0.000
 00053,-0.00000479,0.00001455,-0.00000128,0.00000808,-0.00000370,0.0000
 1358,0.00000184,0.00002796,-0.00000748,-0.00001602,0.00003440,0.000045
 20,0.00002406,0.00000282,-0.00001977,-0.00001579,0.00001328,0.00000622
 ,0.00000366,0.00004109,0.00000346,-0.00002924,-0.00000145,-0.00001174,
 -0.00000567,-0.00002096,0.00004142,0.00001912,-0.00000422,0.00000332,0
 .00000554,-0.00018168,-0.00006866,0.00002828,-0.00000876,-0.00001030,-
 0.00000281,0.00002489,-0.00003778,-0.00002949,0.00003005,0.00000369,0.
 00000374,0.00003155,-0.00001105,0.00000703,-0.00000673,0.00000883,0.00
 000420,0.00000537,0.00001242,0.00002160,0.00001347,-0.00000492,-0.0000
 0475,-0.00001075,-0.00003968,-0.00001165,-0.00019215,0.00010173,0.0000
 2948,-0.00000452,-0.00000551,-0.00000636,-0.00001661,-0.00004280,0.000
 00673,0.00000855,-0.00002411,-0.00001493,-0.00013741,0.00030430,0.0000
 5222,-0.00001630,0.00010560,-0.00003189,0.00000466,0.00001984,0.000005
 14,-0.00013476,-0.00031394,0.00000676,0.00005186,-0.00011305,-0.000071
 55,0.00002599,-0.00010108,0.00002323,0.00004441,-0.00002422,-0.0000320
 8,0.00000874,0.00060498,0.00022118,0.00000114,0.00006567,0.00001637,0.
 00000743,-0.00000809,0.00000095,0.00000640,-0.00000310,-0.00001059,-0.
 00000128,-0.00000675,0.00000842,0.00004084,0.00001280,0.00002101,-0.00
 008863,0.00026765,-0.00001209,0.00002330,-0.00004423,-0.00001911,-0.00
 001311,-0.00001173,-0.00000654,0.00003809,-0.00026957,0.00013983,0.000
 04905,0.00007977,-0.00005181,0.00010436,0.00011875,0.00006151,-0.00051
 679,-0.00052318,-0.00065035,-0.00012171,0.00016587,0.00004652,0.000098
 83,-0.00036188,0.00017065,0.00000739,-0.00001760,-0.00003038,-0.000057
 27,0.00005396,-0.00000567,0.00006720,-0.00008197,-0.00008491,0.0000181
 5,0.00003539,0.00000204,-0.00000010,-0.00001671,-0.00000155,-0.0000057
 8,0.00000584,-0.00000547,-0.00002208,-0.00008685,-0.00001748,-0.000013
 25,0.00011729,0.00004608,-0.00617754,-0.00021149,-0.00149650,0.0017716
 0,0.00036411,0.00105041,0.00266847,-0.00329904,0.00260737,0.00179025,0
 .00093600,-0.00167386,-0.00000577,-0.00000034,-0.00000640,0.00001717,0
 .00000435,0.00000251,0.00001593,-0.00000469,-0.00000117,-0.00000441,0.
 00000117,-0.00000399,-0.16943249,-0.10643502,0.15886358,0.20096336,0.0
 0000504,-0.00000177,-0.00000145,-0.00000735,-0.00000097,0.00000116,0.0
 0000083,-0.00000564,0.00000475,0.00000126,0.00000106,-0.00000073,-0.00
 000243,-0.00000043,-0.00000216,0.00000223,0.00000964,-0.00000237,0.000
 00234,-0.00000004,-0.00000390,0.00000456,-0.00000470,-0.00000096,0.000
 00262,-0.00000163,-0.00000003,-0.00000254,0.00001606,-0.00000627,-0.00
 000638,0.00001224,-0.00000582,0.00002608,0.00000457,-0.00000112,-0.000
 00806,0.00000155,0.00000090,-0.00001763,-0.00000956,0.00000284,0.00000
 441,-0.00000621,0.00000459,0.00000546,0.00000201,0.00000340,-0.0000126
 5,0.00000270,-0.00000847,-0.00000556,0.00000760,0.00000413,-0.00000239
 ,-0.00001702,-0.00001526,-0.00000429,-0.00002686,-0.00000463,0.0000012
 1,-0.00002136,-0.00000614,-0.00000004,0.00000268,-0.00000265,0.0000156
 4,0.00002371,0.00002253,0.00000639,0.00000599,-0.00001355,0.00004774,-
 0.00006144,0.00004756,-0.00001087,-0.00000501,-0.00001621,0.00008653,0
 .00005862,-0.00002405,0.00000695,0.00000761,0.00000757,-0.00002309,0.0
 0002324,0.00003516,-0.00003351,-0.00001280,-0.00001333,-0.00005492,0.0
 0002437,0.00000920,-0.00000165,-0.00000301,-0.00001634,0.00000357,-0.0
 0002762,-0.00001569,-0.00001085,0.00000773,0.00000140,-0.00001872,0.00
 000043,0.00003538,0.00014520,-0.00005450,-0.00003738,0.00000892,0.0000
 0326,-0.00000698,0.00016474,0.00006795,-0.00009891,-0.00000342,0.00000
 346,0.00000096,0.00004881,0.00000565,-0.00000354,-0.00024355,0.0000247
 8,-0.00012573,0.00000081,-0.00002966,-0.00001780,0.00013299,0.00049687
 ,-0.00003048,0.00010186,-0.00006389,-0.00000644,-0.00001812,0.00001073
 ,-0.00001390,-0.00000390,-0.00001429,-0.00000209,0.00035194,-0.0006377
 2,-0.00002965,-0.00007004,-0.00008569,-0.00003560,-0.00001735,0.000039
 99,-0.00000549,0.00001468,-0.00000109,0.00000345,0.00000450,-0.0000165
 1,0.00000605,-0.00004282,-0.00001508,0.00002673,0.00011397,-0.00011717
 ,0.00002129,-0.00003041,0.00004462,-0.00000467,0.00001147,-0.00002925,
 0.00001948,-0.00022224,-0.00026074,0.00021502,-0.00009057,-0.00041049,
 -0.00012836,0.00017726,0.00019048,0.00009698,-0.00092450,0.00039503,-0
 .00074178,-0.00014615,-0.00024796,0.00012120,-0.00010154,0.00007707,-0
 .00007860,-0.00003182,-0.00000922,-0.00006860,-0.00001397,0.00010594,0
 .00008195,0.00013197,-0.00005493,-0.00007902,0.00002983,0.00006235,-0.
 00000901,-0.00003116,-0.00001345,-0.00001825,-0.00001087,-0.00004213,0
 .00002746,-0.00010721,0.00011115,0.00003161,0.00014148,0.00003809,0.00
 016660,0.00622783,0.00265040,-0.00214758,-0.00249162,-0.00088918,-0.00
 065395,-0.00503466,-0.00201042,-0.00030230,-0.00059194,-0.00234515,0.0
 0281372,0.00000517,0.00000042,0.00000121,-0.00001181,-0.00000708,0.000
 00138,-0.00000007,-0.00000712,0.00000213,-0.00000058,-0.00000137,-0.00
 000255,-0.14282290,-0.15819539,0.18961881,0.13225366,0.15039091,0.0000
 0685,-0.00000523,-0.00000319,-0.00000419,-0.00000087,0.00001673,-0.000
 00305,0.00000235,0.00000230,0.00000646,0.00000077,-0.00000180,-0.00000
 306,-0.00000062,-0.00000141,0.00000061,0.00000212,-0.00000571,0.000002
 80,-0.00000394,-0.00000448,-0.00000400,0.00000396,0.00000418,0.0000034
 2,-0.00000282,-0.00000286,0.00000085,-0.00000015,0.00000398,-0.0000008
 4,-0.00000306,0.00000357,-0.00000846,-0.00000176,-0.00000185,0.0000055
 6,-0.00000293,-0.00000349,0.00000312,0.00000556,0.00000209,-0.00000300
 ,0.00000023,-0.00000134,-0.00000160,-0.00000172,-0.00000344,0.00000633
 ,-0.00000063,0.00000257,0.00000292,0.00001006,-0.00000318,0.00001129,-
 0.00000877,-0.00001173,0.00001062,0.00001686,-0.00000507,0.00002083,-0
 .00001129,-0.00001976,0.00000718,0.00000108,0.00000202,0.00002014,0.00
 001408,-0.00001067,0.00000782,-0.00001002,-0.00000108,-0.00003260,0.00
 004038,0.00002203,-0.00000607,-0.00000506,-0.00000073,-0.00004286,-0.0
 0003062,0.00002560,-0.00000431,-0.00000030,0.00000494,0.00001827,-0.00
 002634,-0.00003268,0.00001419,-0.00000467,-0.00000687,0.00002476,-0.00
 000408,0.00000324,-0.00001028,0.00000225,0.00000290,-0.00000219,0.0000
 0226,0.00000048,0.00000584,-0.00000356,-0.00000182,0.00002418,-0.00000
 237,-0.00001014,-0.00017312,0.00008789,0.00005077,0.00000073,-0.000010
 83,-0.00000744,-0.00003338,0.00000814,0.00005619,0.00002433,-0.0000373
 3,-0.00002827,-0.00003119,0.00009857,0.00006460,0.00003990,0.00012207,
 -0.00007354,-0.00002138,0.00000362,-0.00002029,-0.00013727,-0.00029680
 ,0.00007086,0.00008960,-0.00026679,-0.00007567,-0.00000206,-0.00000850
 ,0.00000292,0.00008443,-0.00014745,-0.00008389,0.00001601,0.00046141,0
 .00053992,-0.00001526,0.00002527,-0.00000685,-0.00000239,0.00000492,0.
 00000346,0.00001107,-0.00001294,-0.00001515,0.00000485,0.00000156,0.00
 000835,0.00000845,0.00003010,0.00010990,-0.00009491,0.00025756,-0.0000
 0309,0.00001641,-0.00004071,-0.00003754,-0.00001415,0.00000906,-0.0000
 0798,-0.00012675,-0.00032500,-0.00011615,-0.00001596,0.00000279,0.0000
 3011,0.00000631,0.00002666,-0.00002739,-0.00077995,-0.00049789,-0.0001
 7354,-0.00021070,-0.00005142,0.00026945,0.00028872,-0.00025155,0.00013
 222,-0.00012020,-0.00007047,-0.00011815,0.00005441,0.00031155,0.000023
 95,0.00010860,-0.00004378,-0.00010397,0.00002939,0.00004936,0.00000613
 ,-0.00001930,-0.00002923,-0.00002952,-0.00001767,0.00001382,0.00002302
 ,-0.00005113,0.00001200,-0.00008365,0.00008182,0.00020966,0.00004151,-
 0.00666123,-0.00240684,0.00263538,0.00197738,0.00066993,0.00039179,0.0
 0509459,-0.00097730,-0.00305080,-0.00000030,0.00163733,-0.00354675,-0.
 00000196,-0.00000144,-0.00000556,0.00000668,0.00000180,0.00000033,0.00
 000910,-0.00000240,-0.00000017,-0.00000235,-0.00000045,-0.00000300,0.1
 9263290,0.17606042,-0.24486341,-0.19456947,-0.17847118,0.24616252,0.00
 003536,-0.00004036,-0.00001149,-0.00003162,0.00002757,0.00008716,-0.00
 001952,0.00000741,-0.00000007,0.00004184,0.00000515,-0.00001779,-0.000
 01167,0.00000659,0.00001192,0.00002317,0.00001014,-0.00003525,-0.00000
 004,-0.00000797,-0.00000728,-0.00003765,0.00001584,0.00001272,0.000009
 84,-0.00001372,-0.00000803,0.00001463,0.00000014,0.00001758,0.00001143
 ,-0.00002216,0.00000801,-0.00007163,0.00000414,0.00000589,0.00002949,-
 0.00001359,-0.00000948,0.00003895,0.00002592,-0.00001069,-0.00001522,-
 0.00000258,-0.00000930,-0.00001214,-0.00000099,-0.00001268,0.00004105,
 -0.00000349,0.00002730,-0.00001386,-0.00001586,-0.00005127,0.00011224,
 0.00005141,0.00001829,0.00017716,0.00028495,0.00020314,-0.00003124,0.0
 0002169,0.00000706,0.00002993,0.00001640,0.00002136,0.00013953,-0.0000
 9083,-0.00018926,-0.00003070,-0.00003678,-0.00000726,0.00004414,0.0001
 2486,-0.00010421,0.00002455,0.00004170,0.00005447,-0.00127442,-0.00045
 300,0.00009526,-0.00002649,-0.00000362,-0.00001986,0.00007412,-0.00013
 350,-0.00009512,0.00012050,0.00000397,-0.00000144,0.00000975,0.0000526
 7,0.00007810,-0.00000820,0.00002460,0.00001616,0.00003643,0.00006772,0
 .00009034,0.00004812,-0.00001897,-0.00001211,-0.00019815,-0.00024197,-
 0.00005687,-0.00055150,0.00030209,-0.00003414,-0.00001474,-0.00001862,
 -0.00001914,0.00041014,-0.00050486,-0.00022170,0.00005591,-0.00019541,
 -0.00004801,-0.00075873,0.00241616,0.00043110,0.00019984,-0.00029880,0
 .00013445,0.00002496,0.00018592,0.00005900,-0.00036933,-0.00098343,-0.
 00029908,0.00025815,-0.00014160,0.00012793,-0.00001609,-0.00013331,0.0
 0002308,0.00011682,-0.00006757,-0.00005165,0.00032517,0.00023105,0.000
 32500,-0.00018317,0.00008369,0.00007991,0.00000338,0.00003684,-0.00001
 576,0.00003895,0.00000254,-0.00001966,-0.00001368,-0.00008193,0.000025
 89,-0.00011376,-0.00014867,-0.00006746,0.00015175,0.00062113,0.0000299
 0,0.00001688,0.00000882,-0.00003124,-0.00002980,-0.00010394,0.00001420
 ,0.00031214,0.00001606,-0.00039472,0.00008018,0.00061220,0.00025199,-0
 .00023714,-0.00013674,-0.00010843,0.00123148,-0.00063503,0.00038093,0.
 00026120,-0.00016558,-0.00000426,-0.00250251,-0.00483409,-0.00050925,-
 0.00012343,0.00030030,0.00001543,0.00022270,0.00075231,0.00010475,-0.0
 0013676,-0.00013642,0.00022861,-0.00002872,-0.00007333,0.00001049,0.00
 005679,0.00007358,0.00005760,0.00000729,0.00008083,-0.00002881,0.00002
 330,-0.00013299,-0.00011443,-0.00034206,0.00032646,-0.00022575,0.01925
 622,0.00978204,-0.02134494,-0.00067335,-0.00172359,0.00866307,-0.01288
 969,-0.00117345,0.00084698,0.00122537,-0.01186855,0.01710107,-0.000016
 16,-0.00000062,-0.00001686,0.00004623,0.00001039,0.00000567,0.00005183
 ,-0.00001191,-0.00000460,-0.00002125,0.00000561,-0.00000042,-0.3275292
 3,0.13605316,-0.01273485,-0.03087216,0.01299618,0.00243892,0.35376693,
 0.00000216,0.00000924,-0.00000689,-0.00000954,-0.00001534,-0.00001093,
 0.00000426,-0.00001522,0.00001340,-0.00000505,-0.00000027,0.00000307,-
 0.00000345,-0.00000380,-0.00000678,-0.00000554,0.00001687,-0.00000167,
 0.00000655,0.00000124,-0.00000749,0.00001832,-0.00001058,-0.00000116,0
 .00000381,-0.00000089,0.00000121,-0.00000664,0.00003159,-0.00001364,-0
 .00001438,0.00002538,-0.00001418,0.00006296,0.00000942,-0.00000375,-0.
 00002107,0.00000497,0.00000224,-0.00004071,-0.00002461,0.00000933,0.00
 000996,-0.00001045,0.00001020,0.00001130,0.00000378,0.00000773,-0.0000
 2943,0.00000558,-0.00002175,-0.00003607,0.00005622,0.00003661,-0.00002
 483,-0.00006617,-0.00005551,-0.00011218,-0.00018988,-0.00007115,-0.000
 01671,-0.00009639,-0.00002521,-0.00000458,0.00000197,-0.00001016,-0.00
 014519,-0.00000958,0.00019077,0.00002344,0.00002723,-0.00001990,-0.000
 01110,-0.00011940,0.00011846,-0.00003511,-0.00001801,-0.00005019,0.000
 79547,0.00043863,-0.00015844,0.00001434,0.00000888,0.00002600,-0.00005
 486,0.00007285,0.00007721,-0.00009743,-0.00002342,-0.00001905,-0.00006
 264,-0.00000659,-0.00002848,-0.00000536,-0.00000858,-0.00003452,-0.000
 00919,-0.00006915,-0.00006574,-0.00003286,0.00001771,0.00000490,0.0000
 8250,0.00013852,0.00004960,0.00033506,-0.00013709,0.00000584,0.0000188
 9,0.00000563,-0.00000544,0.00007233,0.00013734,-0.00002856,0.00000622,
 0.00001994,-0.00000522,0.00044379,-0.00100664,-0.00000092,-0.00067413,
 0.00037681,-0.00021409,0.00008397,-0.00015530,0.00003632,0.00034769,0.
 00102059,0.00014180,0.00009757,-0.00005185,-0.00003739,-0.00005643,0.0
 0017346,-0.00005984,-0.00003979,-0.00012402,-0.00003432,-0.00006276,-0
 .00071693,0.00017386,0.00001071,-0.00012604,-0.00007177,-0.00002048,0.
 00003037,-0.00000053,0.00000271,-0.00000947,0.00000683,0.00000848,0.00
 002185,-0.00000387,-0.00000859,0.00004651,0.00010485,0.00003641,-0.000
 30441,-0.00000437,-0.00003260,0.00003760,-0.00000812,0.00001892,0.0000
 1753,0.00000310,0.00001078,-0.00041691,0.00024613,0.00003277,-0.000301
 54,-0.00013745,0.00016414,0.00031683,0.00021658,-0.00057462,0.00062984
 ,-0.00123289,0.00003602,-0.00148687,-0.00057449,-0.00311723,0.00126149
 ,-0.00090538,0.00030732,0.00042341,0.00030028,-0.00007186,-0.00110231,
 -0.00002765,0.00007582,-0.00021318,0.00019536,-0.00001532,0.00005837,-
 0.00004059,-0.00001049,0.00008454,0.00006739,0.00002870,-0.00010786,-0
 .00002347,-0.00011383,0.00018589,0.00002012,0.00036395,0.00022261,0.00
 027300,-0.00082071,-0.00362105,0.01064833,-0.00125071,0.00078226,-0.00
 429125,0.00275097,0.00048315,-0.00311112,-0.00804372,-0.00448346,-0.00
 675602,0.00001164,0.00000064,0.00000306,-0.00002937,-0.00001467,0.0000
 0136,-0.00000487,-0.00001341,0.00000481,0.00000330,-0.00000463,-0.0000
 0539,0.17397948,-0.11845586,0.02643812,-0.02353090,0.01083456,0.003873
 63,-0.14102035,0.11550055,0.00001756,-0.00001933,-0.00000611,-0.000008
 65,0.00001251,0.00005053,-0.00000940,0.00000747,0.00000432,0.00002067,
 0.00000232,-0.00000803,-0.00000834,0.00000087,-0.00000031,0.00001211,0
 .00000562,-0.00001665,0.00000492,-0.00000907,-0.00001118,-0.00001601,0
 .00001018,0.00000982,0.00000939,-0.00000817,-0.00000672,0.00000245,-0.
 00000241,0.00001130,0.00000213,-0.00001273,0.00000678,-0.00002833,-0.0
 0000374,-0.00000158,0.00001497,-0.00000648,-0.00000463,0.00001811,0.00
 001476,-0.00000133,-0.00000802,0.00000077,-0.00000459,-0.00000575,-0.0
 0000184,-0.00000731,0.00001770,-0.00000198,0.00001042,0.00003711,0.000
 01488,-0.00001835,0.00005320,-0.00000916,-0.00002526,0.00005757,0.0001
 4443,0.00007503,-0.00000503,-0.00002553,-0.00001332,0.00001757,0.00000
 489,0.00000548,0.00016239,0.00006445,-0.00011507,0.00002563,-0.0000430
 3,-0.00000744,-0.00003149,0.00011024,-0.00000127,-0.00000020,0.0000038
 4,0.00001176,-0.00056253,-0.00028888,0.00015551,-0.00000667,-0.0000053
 7,-0.00000113,0.00003909,-0.00006949,-0.00005734,0.00005822,-0.0000018
 1,-0.00001504,0.00001196,0.00002869,0.00003181,-0.00001302,0.00000814,
 0.00000870,0.00002652,0.00003594,0.00002862,0.00002128,-0.00001214,-0.
 00000246,-0.00006464,-0.00005995,-0.00007030,-0.00034200,0.00017759,0.
 00001330,-0.00000585,-0.00002735,-0.00000920,0.00012807,-0.00041697,-0
 .00000928,0.00007077,-0.00020114,-0.00006360,-0.00026472,0.00114255,0.
 00043306,0.00003418,-0.00000742,-0.00000372,-0.00000589,0.00006985,-0.
 00000776,-0.00024906,-0.00051759,-0.00006485,0.00014105,-0.00020836,0.
 00004604,-0.00001561,-0.00002881,-0.00002400,0.00008026,-0.00019903,-0
 .00009493,-0.00001662,0.00065035,0.00052773,-0.00005132,0.00005562,0.0
 0004674,0.00000173,0.00000310,-0.00000031,0.00001463,-0.00001399,-0.00
 001945,-0.00000100,-0.00002429,0.00000924,-0.00000757,-0.00000116,0.00
 006974,-0.00007159,0.00040711,-0.00001267,0.00002544,-0.00004658,-0.00
 004104,-0.00001975,-0.00001543,-0.00000728,-0.00024349,-0.00052719,0.0
 0014671,0.00007184,0.00029117,0.00005322,0.00007147,0.00019544,0.00002
 873,0.00005007,-0.00080036,-0.00110724,0.00023067,0.00036846,0.0000220
 8,-0.00057169,-0.00131210,0.00127424,0.00005352,0.00020085,0.00003298,
 0.00002096,0.00028512,0.00014528,0.00008757,-0.00008579,-0.00012110,0.
 00002838,0.00003925,0.00000853,-0.00001259,-0.00003276,-0.00001634,-0.
 00001322,0.00003361,0.00001426,0.00001483,-0.00007928,-0.00017352,-0.0
 0016259,-0.00005039,-0.00023964,-0.00540675,0.00473591,-0.01056610,0.0
 0156827,0.00042540,0.00214812,-0.00090206,-0.00304168,0.00202773,0.009
 20891,-0.00483618,-0.00371668,-0.00000676,-0.00000166,-0.00001021,0.00
 002046,0.00000604,0.00000178,0.00001917,-0.00000498,-0.00000056,-0.000
 00767,0.00000140,-0.00000891,-0.04367979,0.03876317,-0.03878380,0.0354
 0902,-0.01015560,0.00189506,0.00484388,-0.02510475,0.04614295\\0.00000
 193,-0.00000179,-0.00000046,-0.00000424,-0.00000547,-0.00000551,0.,-0.
 00000002,-0.00000007,0.00000064,0.00000014,0.00000009,0.00000007,-0.00
 000028,0.00000014,-0.00000191,-0.00000273,0.00000710,-0.00000129,0.000
 00195,-0.00000161,-0.00000542,0.00000158,-0.00000344,0.00000010,-0.000
 00014,0.00000011,-0.00000241,0.00000017,0.00000178,0.00000068,0.000001
 11,-0.00000226,0.00000016,0.00000318,0.00000279,0.00000092,-0.00000016
 ,0.00000122,0.00000155,0.00000040,-0.00000011,-0.00000037,-0.00000059,
 0.00000031,-0.00000013,-0.00000004,-0.00000013,-0.00000047,-0.00000006
 ,0.00000039,0.00000270,-0.00000146,0.00000981,0.00000161,0.00000035,-0
 .00000167,0.00000096,-0.00000113,0.00000042,-0.00000081,0.00000001,-0.
 00000051,-0.00000029,-0.00000085,-0.00000050,-0.00000017,0.00000204,0.
 00000370,-0.00000045,0.00000161,0.00000036,0.00000118,0.00000518,-0.00
 000255,-0.00000011,-0.00000048,-0.00000111,0.00000213,-0.00000182,-0.0
 0000137,0.00000406,-0.00000118,-0.00000643,0.00000059,0.00000219,0.000
 00161,0.00000352,-0.00000055,-0.00000062,-0.00000314,0.00000167,0.0000
 0260,0.00000005,-0.00000024,-0.00000013,-0.00000098,-0.00000255,-0.000
 00182,0.00000024,0.00000011,0.00000043,-0.00000600,-0.00000009,0.00000
 830,0.00000113,-0.00000092,-0.00000357,-0.00000049,-0.00000022,0.00000
 101,0.00000264,-0.00000135,0.00000085,-0.00000006,0.00000159,-0.000000
 58,-0.00000089,0.00000184,-0.00000684,0.00001114,0.00000377,-0.0000066
 6,-0.00000522,-0.00000482,-0.00000137,-0.00000760,-0.00001646,0.000007
 93,-0.00000258,-0.00000041,0.00000242,-0.00000027,0.00000002,-0.000000
 16,0.00000008,0.00000006,-0.00000064,-0.00000149,-0.00000053,0.0000008
 0,0.00000092,0.00000043,-0.00000065,0.00000164,0.00000007,-0.00000039,
 -0.00000027,0.00000004,-0.00000071,0.00000020,-0.00000025,-0.00000026,
 0.00000376,0.00000343,0.00000428,-0.00000611,-0.00000347,-0.00001670,0
 .00000048,-0.00000207,-0.00000021,0.00000065,-0.00000010,0.00000154,-0
 .00000151,0.00000125,-0.00000443,0.00000008,-0.00000285,-0.00000122,0.
 00000167,0.00000080,-0.00000159,0.00000102,0.00000054,0.00000586,-0.00
 000322,0.00000179,-0.00000062,-0.00000056,-0.00000229,-0.00000228,-0.0
 0000119,0.00000118,0.00000066,0.00000217,0.00000235,0.00000061,0.00000
 221,0.00000036,0.00000233,-0.00000058,-0.00000022,0.00000066,0.0000000
 9,0.00000006,-0.00000150,0.00000095,-0.00000023,0.00000025,0.00000543,
 -0.00000150,0.00000403,-0.00000105,0.00000319,-0.00000277,0.00003857,0
 .00001391,0.00000405,-0.00000754,0.00000497,-0.00000362,-0.00001117,0.
 00000366,-0.00001042,-0.00002115,-0.00000550,0.00001603,-0.00000111,-0
 .00000080,0.00000052,0.00000070,0.00000242,0.00000096,0.00000069,0.000
 00138,0.00000146,0.00000033,-0.00000185,0.00000078,-0.00000523,0.00000
 061,0.00000459,0.00001085,0.00000237,-0.00000651,-0.00000300,-0.000006
 30,0.00000124\\\@


 The chemist is a guest at the physicist's table and
 frequently dines well.
                   -- Richard Bersohn
 Job cpu time:      12 days 21 hours 18 minutes 26.5 seconds.
 Elapsed time:       0 days 15 hours 40 minutes 43.8 seconds.
 File lengths (MBytes):  RWF=  23140 Int=      0 D2E=      0 Chk=    135 Scr=      1
 Normal termination of Gaussian 16 at Sat Mar  9 06:45:58 2024.
