 Entering Gaussian System, Link 0=g16
 Input=2water-ofreq.gjf
 Output=2water-ofreq.log
 Initial command:
 /packages/apps/gaussian/g16/g16/l1.exe "/scratch/mdturne9/26scratch/oFreq/Gau-225982.inp" -scrdir="/scratch/mdturne9/26scratch/oFreq/"
 Entering Link 1 = /packages/apps/gaussian/g16/g16/l1.exe PID=    225983.
  
 Copyright (c) 1988,1990,1992,1993,1995,1998,2003,2009,2016,
            Gaussian, Inc.  All Rights Reserved.
  
 This is part of the Gaussian(R) 16 program.  It is based on
 the Gaussian(R) 09 system (copyright 2009, Gaussian, Inc.),
 the Gaussian(R) 03 system (copyright 2003, Gaussian, Inc.),
 the Gaussian(R) 98 system (copyright 1998, Gaussian, Inc.),
 the Gaussian(R) 94 system (copyright 1995, Gaussian, Inc.),
 the Gaussian 92(TM) system (copyright 1992, Gaussian, Inc.),
 the Gaussian 90(TM) system (copyright 1990, Gaussian, Inc.),
 the Gaussian 88(TM) system (copyright 1988, Gaussian, Inc.),
 the Gaussian 86(TM) system (copyright 1986, Carnegie Mellon
 University), and the Gaussian 82(TM) system (copyright 1983,
 Carnegie Mellon University). Gaussian is a federally registered
 trademark of Gaussian, Inc.
  
 This software contains proprietary and confidential information,
 including trade secrets, belonging to Gaussian, Inc.
  
 This software is provided under written license and may be
 used, copied, transmitted, or stored only in accord with that
 written license.
  
 The following legend is applicable only to US Government
 contracts under FAR:
  
                    RESTRICTED RIGHTS LEGEND
  
 Use, reproduction and disclosure by the US Government is
 subject to restrictions as set forth in subparagraphs (a)
 and (c) of the Commercial Computer Software - Restricted
 Rights clause in FAR 52.227-19.
  
 Gaussian, Inc.
 340 Quinnipiac St., Bldg. 40, Wallingford CT 06492
  
  
 ---------------------------------------------------------------
 Warning -- This program may not be used in any manner that
 competes with the business of Gaussian, Inc. or will provide
 assistance to any competitor of Gaussian, Inc.  The licensee
 of this program is prohibited from giving any competitor of
 Gaussian, Inc. access to this program.  By using this program,
 the user acknowledges that Gaussian, Inc. is engaged in the
 business of creating and licensing software in the field of
 computational chemistry and represents and warrants to the
 licensee that it is not a competitor of Gaussian, Inc. and that
 it will not use this program in any manner prohibited above.
 ---------------------------------------------------------------
  

 Cite this work as:
 Gaussian 16, Revision A.03,
 M. J. Frisch, G. W. Trucks, H. B. Schlegel, G. E. Scuseria, 
 M. A. Robb, J. R. Cheeseman, G. Scalmani, V. Barone, 
 G. A. Petersson, H. Nakatsuji, X. Li, M. Caricato, A. V. Marenich, 
 J. Bloino, B. G. Janesko, R. Gomperts, B. Mennucci, H. P. Hratchian, 
 J. V. Ortiz, A. F. Izmaylov, J. L. Sonnenberg, D. Williams-Young, 
 F. Ding, F. Lipparini, F. Egidi, J. Goings, B. Peng, A. Petrone, 
 T. Henderson, D. Ranasinghe, V. G. Zakrzewski, J. Gao, N. Rega, 
 G. Zheng, W. Liang, M. Hada, M. Ehara, K. Toyota, R. Fukuda, 
 J. Hasegawa, M. Ishida, T. Nakajima, Y. Honda, O. Kitao, H. Nakai, 
 T. Vreven, K. Throssell, J. A. Montgomery, Jr., J. E. Peralta, 
 F. Ogliaro, M. J. Bearpark, J. J. Heyd, E. N. Brothers, K. N. Kudin, 
 V. N. Staroverov, T. A. Keith, R. Kobayashi, J. Normand, 
 K. Raghavachari, A. P. Rendell, J. C. Burant, S. S. Iyengar, 
 J. Tomasi, M. Cossi, J. M. Millam, M. Klene, C. Adamo, R. Cammi, 
 J. W. Ochterski, R. L. Martin, K. Morokuma, O. Farkas, 
 J. B. Foresman, and D. J. Fox, Gaussian, Inc., Wallingford CT, 2016.
 
 ******************************************
 Gaussian 16:  ES64L-G16RevA.03 25-Dec-2016
                 8-Mar-2024 
 ******************************************
 %nprocshared=20
 Will use up to   20 processors via shared memory.
 %mem=15GB
 %chk=2water-v2.chk
 ---------------------------------
 #p opt freq wb97xd/6-311+g(2d,2p)
 ---------------------------------
 1/18=20,19=15,26=3,38=1/1,3;
 2/9=110,12=2,17=6,18=5,40=1/2;
 3/5=4,6=6,7=212,11=2,25=1,30=1,71=1,74=-58/1,2,3;
 4//1;
 5/5=2,38=5/2;
 6/7=2,8=2,9=2,10=2,28=1/1;
 7//1,2,3,16;
 1/18=20,19=15,26=3/3(2);
 2/9=110/2;
 99//99;
 2/9=110/2;
 3/5=4,6=6,7=212,11=2,25=1,30=1,71=1,74=-58/1,2,3;
 4/5=5,16=3,69=1/1;
 5/5=2,38=5/2;
 7//1,2,3,16;
 1/18=20,19=15,26=3/3(-5);
 2/9=110/2;
 6/7=2,8=2,9=2,10=2,19=2,28=1/1;
 99/9=1/99;
 Leave Link    1 at Fri Mar  8 15:00:03 2024, MaxMem=  2013265920 cpu:               4.7 elap:               0.3
 (Enter /packages/apps/gaussian/g16/g16/l101.exe)
 -------------------
 1 water 2,6 spacing
 -------------------
 Symbolic Z-matrix:
 Charge =  0 Multiplicity = 1
 C                    0    -5.21174  -3.20089   0.98091  H 
 C                    0    -4.50506  -1.84734   1.08683  H 
 H                    0    -4.64951  -3.97919   1.49693  H 
 H                    0    -6.20898  -3.15012   1.42043  H 
 H                    0    -5.32152  -3.50249  -0.06269  H 
 C                    0    -5.32703  -0.74361   0.40603  H 
 H                    0    -4.42753  -1.59093   2.14669  H 
 C                    0    -4.6866    0.65537   0.47093  H 
 H                    0    -5.32381   1.33708   1.03845  H 
 H                    0    -3.74165   0.60464   1.01528  H 
 C                    0    -4.43617   1.24741  -0.91276  H 
 C                    0    -3.75328   2.61577  -0.91592  H 
 H                    0    -4.3702    3.29507  -0.31925  H 
 C                    0    -3.68872   3.17509  -2.34348  H 
 H                    0    -3.24124   4.16904  -2.35843  H 
 H                    0    -3.08209   2.5257   -2.9779   H 
 H                    0    -4.68659   3.24151  -2.77974  H 
 C                    0    -3.08994  -1.92358   0.54984  H 
 C                    0    -2.83627  -2.14335  -0.80373  H 
 C                    0    -2.00131  -1.76587   1.39973  H 
 C                    0    -1.53711  -2.19809  -1.2811   H 
 H                    0    -3.6602   -2.26008  -1.49664  H 
 C                    0    -0.69747  -1.82063   0.93069  H 
 H                    0    -2.16856  -1.57964   2.45312  H 
 C                    0    -0.4511   -2.04452  -0.4202   H 
 H                    0    -1.36576  -2.34748  -2.34108  H 
 H                    0     0.12559  -1.67821   1.62212  H 
 C                    0    -2.36134   2.6275   -0.31107  H 
 C                    0    -1.49228   1.54356  -0.41131  H 
 C                    0    -1.8963    3.78094   0.31712  H 
 C                    0    -0.19406   1.62269   0.06429  H 
 H                    0    -1.82654   0.61201  -0.84894  H 
 C                    0    -0.59684   3.86582   0.79212  H 
 H                    0    -2.56419   4.62571   0.43689  H 
 C                    0     0.27968   2.79458   0.64742  H 
 H                    0     0.47717   0.77374   0.01543  H 
 H                    0    -0.2708    4.7703    1.29255  H 
 C                    0     1.70015   2.83766   1.12673  H 
 H                    0     1.81061   3.46719   2.00919  H 
 H                    0     2.053     1.81622   1.32274  H 
 C                    0     0.95742  -2.04073  -0.94105  H 
 H                    0     0.97905  -1.7556   -1.99203  H 
 H                    0     1.56494  -1.34299  -0.36096  H 
 C                    0     4.06378   3.17081   0.64555  H 
 H                    0     4.77402   3.68248  -0.00043  H 
 H                    0     4.11429   3.57653   1.6532   H 
 H                    0     4.25268   2.09404   0.62037  H 
 C                    0     2.46021   4.85186  -0.09599  H 
 H                    0     1.45791   5.00451  -0.48587  H 
 H                    0     2.57185   5.36612   0.856    H 
 H                    0     3.19336   5.22665  -0.80584  H 
 C                    0     2.58046   2.68713  -1.20302  H 
 H                    0     2.8281    1.63426  -1.02576  H 
 H                    0     1.58062   2.83263  -1.59983  H 
 H                    0     3.31916   3.12212  -1.87345  H 
 C                    0     3.00849  -3.21715  -1.53601  H 
 H                    0     3.51162  -4.18109  -1.5297   H 
 H                    0     2.85494  -2.88418  -2.55915  H 
 H                    0     3.59656  -2.49477  -0.9709   H 
 C                    0     1.90097  -3.78353   0.54897  H 
 H                    0     2.51936  -3.0095    1.01581  H 
 H                    0     0.94053  -3.88512   1.04424  H 
 H                    0     2.42335  -4.73796   0.54142  H 
 C                    0     0.89574  -4.42743  -1.57805  H 
 H                    0    -0.05841  -4.56476  -1.07815  H 
 H                    0     0.73259  -4.11742  -2.60794  H 
 H                    0     1.46418  -5.3535   -1.55879  H 
 N                    0     2.68775   3.4022    0.10653  H 
 N                    0     1.67433  -3.38124  -0.87453  H 
 C                    0     3.49614  -0.46872   0.56525  H 
 O                    0     2.3581   -0.03431   1.04128  H 
 O                    0     4.09153   0.24869  -0.32203  H 
 O                    0     3.94995  -1.59261   0.93855  H 
 H                    0    -3.84907   0.54054  -1.50674  L    H        11    0.        0.        0.        0. 
 H                    0    -5.39252   1.34632  -1.43443  L    H        11    0.        0.        0.        0. 
 H                    0    -6.31785  -0.73146   0.86411  L    H        6     0.        0.        0.        0. 
 H                    0    -5.4913   -1.02346  -0.63908  L    H        6     0.        0.        0.        0. 
 O                    0     5.82639  -1.52631  -1.42127  L 
 H                    0     5.25047  -0.78653  -1.11805  L 
 H                    0     5.91231  -2.0093   -0.59691  L 
 O                    0     1.67995  -1.48146   3.14443  L 
 H                    0     1.95848  -0.90404   2.38194  L 
 H                    0     2.48716  -1.95792   3.33805  L 
 
 Warning:  atom H74 in layer R is uses the same element as its link atom.
 Warning:  atom H75 in layer R is uses the same element as its link atom.
 Warning:  atom H76 in layer R is uses the same element as its link atom.
 Warning:  atom H77 in layer R is uses the same element as its link atom.
 Add virtual bond connecting atoms H82        and O71        Dist= 3.11D+00.
 Add virtual bond connecting atoms H79        and O72        Dist= 3.30D+00.
 Add virtual bond connecting atoms O71        and H40        Dist= 3.58D+00.
 Add virtual bond connecting atoms O72        and H53        Dist= 3.78D+00.
 Add virtual bond connecting atoms O73        and H61        Dist= 3.81D+00.
 ITRead=  0  0  0  0  0  0  0  0  0  0  0  0  0  0  0  0  0  0  0  0
 ITRead=  0  0  0  0  0  0  0  0  0  0  0  0  0  0  0  0  0  0  0  0
 ITRead=  0  0  0  0  0  0  0  0  0  0  0  0  0  0  0  0  0  0  0  0
 ITRead=  0  0  0  0  0  0  0  0  0  0  0  0  0  0  0  0  0  0  0  0
 ITRead=  0  0  0
 MicOpt= -1 -1 -1 -1 -1 -1 -1 -1 -1 -1 -1 -1 -1 -1 -1 -1 -1 -1 -1 -1
 MicOpt= -1 -1 -1 -1 -1 -1 -1 -1 -1 -1 -1 -1 -1 -1 -1 -1 -1 -1 -1 -1
 MicOpt= -1 -1 -1 -1 -1 -1 -1 -1 -1 -1 -1 -1 -1 -1 -1 -1 -1 -1 -1 -1
 MicOpt= -1 -1 -1 -1 -1 -1 -1 -1 -1 -1 -1 -1 -1 -1 -1 -1 -1 -1 -1 -1
 MicOpt= -1 -1 -1
 NAtoms=     83 NQM=       83 NQMF=       0 NMMI=      0 NMMIF=      0
                NMic=       0 NMicF=      0.
                    Isotopes and Nuclear Properties:
 (Nuclear quadrupole moments (NQMom) in fm**2, nuclear magnetic moments (NMagM)
  in nuclear magnetons)

  Atom         1           2           3           4           5           6           7           8           9          10
 IAtWgt=          12          12           1           1           1          12           1          12           1           1
 AtmWgt=  12.0000000  12.0000000   1.0078250   1.0078250   1.0078250  12.0000000   1.0078250  12.0000000   1.0078250   1.0078250
 NucSpn=           0           0           1           1           1           0           1           0           1           1
 AtZEff=  -0.0000000  -0.0000000  -0.0000000  -0.0000000  -0.0000000  -0.0000000  -0.0000000  -0.0000000  -0.0000000  -0.0000000
 NQMom=    0.0000000   0.0000000   0.0000000   0.0000000   0.0000000   0.0000000   0.0000000   0.0000000   0.0000000   0.0000000
 NMagM=    0.0000000   0.0000000   2.7928460   2.7928460   2.7928460   0.0000000   2.7928460   0.0000000   2.7928460   2.7928460
 AtZNuc=   6.0000000   6.0000000   1.0000000   1.0000000   1.0000000   6.0000000   1.0000000   6.0000000   1.0000000   1.0000000

  Atom        11          12          13          14          15          16          17          18          19          20
 IAtWgt=          12          12           1          12           1           1           1          12          12          12
 AtmWgt=  12.0000000  12.0000000   1.0078250  12.0000000   1.0078250   1.0078250   1.0078250  12.0000000  12.0000000  12.0000000
 NucSpn=           0           0           1           0           1           1           1           0           0           0
 AtZEff=  -0.0000000  -0.0000000  -0.0000000  -0.0000000  -0.0000000  -0.0000000  -0.0000000  -0.0000000  -0.0000000  -0.0000000
 NQMom=    0.0000000   0.0000000   0.0000000   0.0000000   0.0000000   0.0000000   0.0000000   0.0000000   0.0000000   0.0000000
 NMagM=    0.0000000   0.0000000   2.7928460   0.0000000   2.7928460   2.7928460   2.7928460   0.0000000   0.0000000   0.0000000
 AtZNuc=   6.0000000   6.0000000   1.0000000   6.0000000   1.0000000   1.0000000   1.0000000   6.0000000   6.0000000   6.0000000

  Atom        21          22          23          24          25          26          27          28          29          30
 IAtWgt=          12           1          12           1          12           1           1          12          12          12
 AtmWgt=  12.0000000   1.0078250  12.0000000   1.0078250  12.0000000   1.0078250   1.0078250  12.0000000  12.0000000  12.0000000
 NucSpn=           0           1           0           1           0           1           1           0           0           0
 AtZEff=  -0.0000000  -0.0000000  -0.0000000  -0.0000000  -0.0000000  -0.0000000  -0.0000000  -0.0000000  -0.0000000  -0.0000000
 NQMom=    0.0000000   0.0000000   0.0000000   0.0000000   0.0000000   0.0000000   0.0000000   0.0000000   0.0000000   0.0000000
 NMagM=    0.0000000   2.7928460   0.0000000   2.7928460   0.0000000   2.7928460   2.7928460   0.0000000   0.0000000   0.0000000
 AtZNuc=   6.0000000   1.0000000   6.0000000   1.0000000   6.0000000   1.0000000   1.0000000   6.0000000   6.0000000   6.0000000

  Atom        31          32          33          34          35          36          37          38          39          40
 IAtWgt=          12           1          12           1          12           1           1          12           1           1
 AtmWgt=  12.0000000   1.0078250  12.0000000   1.0078250  12.0000000   1.0078250   1.0078250  12.0000000   1.0078250   1.0078250
 NucSpn=           0           1           0           1           0           1           1           0           1           1
 AtZEff=  -0.0000000  -0.0000000  -0.0000000  -0.0000000  -0.0000000  -0.0000000  -0.0000000  -0.0000000  -0.0000000  -0.0000000
 NQMom=    0.0000000   0.0000000   0.0000000   0.0000000   0.0000000   0.0000000   0.0000000   0.0000000   0.0000000   0.0000000
 NMagM=    0.0000000   2.7928460   0.0000000   2.7928460   0.0000000   2.7928460   2.7928460   0.0000000   2.7928460   2.7928460
 AtZNuc=   6.0000000   1.0000000   6.0000000   1.0000000   6.0000000   1.0000000   1.0000000   6.0000000   1.0000000   1.0000000

  Atom        41          42          43          44          45          46          47          48          49          50
 IAtWgt=          12           1           1          12           1           1           1          12           1           1
 AtmWgt=  12.0000000   1.0078250   1.0078250  12.0000000   1.0078250   1.0078250   1.0078250  12.0000000   1.0078250   1.0078250
 NucSpn=           0           1           1           0           1           1           1           0           1           1
 AtZEff=  -0.0000000  -0.0000000  -0.0000000  -0.0000000  -0.0000000  -0.0000000  -0.0000000  -0.0000000  -0.0000000  -0.0000000
 NQMom=    0.0000000   0.0000000   0.0000000   0.0000000   0.0000000   0.0000000   0.0000000   0.0000000   0.0000000   0.0000000
 NMagM=    0.0000000   2.7928460   2.7928460   0.0000000   2.7928460   2.7928460   2.7928460   0.0000000   2.7928460   2.7928460
 AtZNuc=   6.0000000   1.0000000   1.0000000   6.0000000   1.0000000   1.0000000   1.0000000   6.0000000   1.0000000   1.0000000

  Atom        51          52          53          54          55          56          57          58          59          60
 IAtWgt=           1          12           1           1           1          12           1           1           1          12
 AtmWgt=   1.0078250  12.0000000   1.0078250   1.0078250   1.0078250  12.0000000   1.0078250   1.0078250   1.0078250  12.0000000
 NucSpn=           1           0           1           1           1           0           1           1           1           0
 AtZEff=  -0.0000000  -0.0000000  -0.0000000  -0.0000000  -0.0000000  -0.0000000  -0.0000000  -0.0000000  -0.0000000  -0.0000000
 NQMom=    0.0000000   0.0000000   0.0000000   0.0000000   0.0000000   0.0000000   0.0000000   0.0000000   0.0000000   0.0000000
 NMagM=    2.7928460   0.0000000   2.7928460   2.7928460   2.7928460   0.0000000   2.7928460   2.7928460   2.7928460   0.0000000
 AtZNuc=   1.0000000   6.0000000   1.0000000   1.0000000   1.0000000   6.0000000   1.0000000   1.0000000   1.0000000   6.0000000

  Atom        61          62          63          64          65          66          67          68          69          70
 IAtWgt=           1           1           1          12           1           1           1          14          14          12
 AtmWgt=   1.0078250   1.0078250   1.0078250  12.0000000   1.0078250   1.0078250   1.0078250  14.0030740  14.0030740  12.0000000
 NucSpn=           1           1           1           0           1           1           1           2           2           0
 AtZEff=  -0.0000000  -0.0000000  -0.0000000  -0.0000000  -0.0000000  -0.0000000  -0.0000000  -0.0000000  -0.0000000  -0.0000000
 NQMom=    0.0000000   0.0000000   0.0000000   0.0000000   0.0000000   0.0000000   0.0000000   2.0440000   2.0440000   0.0000000
 NMagM=    2.7928460   2.7928460   2.7928460   0.0000000   2.7928460   2.7928460   2.7928460   0.4037610   0.4037610   0.0000000
 AtZNuc=   1.0000000   1.0000000   1.0000000   6.0000000   1.0000000   1.0000000   1.0000000   7.0000000   7.0000000   6.0000000

  Atom        71          72          73          74          75          76          77          78          79          80
 IAtWgt=          16          16          16           1           1           1           1          16           1           1
 AtmWgt=  15.9949146  15.9949146  15.9949146   1.0078250   1.0078250   1.0078250   1.0078250  15.9949146   1.0078250   1.0078250
 NucSpn=           0           0           0           1           1           1           1           0           1           1
 AtZEff=  -0.0000000  -0.0000000  -0.0000000  -0.0000000  -0.0000000  -0.0000000  -0.0000000  -0.0000000  -0.0000000  -0.0000000
 NQMom=    0.0000000   0.0000000   0.0000000   0.0000000   0.0000000   0.0000000   0.0000000   0.0000000   0.0000000   0.0000000
 NMagM=    0.0000000   0.0000000   0.0000000   2.7928460   2.7928460   2.7928460   2.7928460   0.0000000   2.7928460   2.7928460
 AtZNuc=   8.0000000   8.0000000   8.0000000   1.0000000   1.0000000   1.0000000   1.0000000   8.0000000   1.0000000   1.0000000

  Atom        81          82          83
 IAtWgt=          16           1           1
 AtmWgt=  15.9949146   1.0078250   1.0078250
 NucSpn=           0           1           1
 AtZEff=  -0.0000000  -0.0000000  -0.0000000
 NQMom=    0.0000000   0.0000000   0.0000000
 NMagM=    0.0000000   2.7928460   2.7928460
 AtZNuc=   8.0000000   1.0000000   1.0000000
 Leave Link  101 at Fri Mar  8 15:00:04 2024, MaxMem=  2013265920 cpu:               7.6 elap:               0.5
 (Enter /packages/apps/gaussian/g16/g16/l103.exe)

 GradGradGradGradGradGradGradGradGradGradGradGradGradGradGradGradGradGrad
 Berny optimization.
 Initialization pass.
                           ----------------------------
                           !    Initial Parameters    !
                           ! (Angstroms and Degrees)  !
 --------------------------                            --------------------------
 ! Name  Definition              Value          Derivative Info.                !
 --------------------------------------------------------------------------------
 ! R1    R(1,2)                  1.5306         estimate D2E/DX2                !
 ! R2    R(1,3)                  1.09           estimate D2E/DX2                !
 ! R3    R(1,4)                  1.091          estimate D2E/DX2                !
 ! R4    R(1,5)                  1.0918         estimate D2E/DX2                !
 ! R5    R(2,6)                  1.5354         estimate D2E/DX2                !
 ! R6    R(2,7)                  1.0932         estimate D2E/DX2                !
 ! R7    R(2,18)                 1.5155         estimate D2E/DX2                !
 ! R8    R(6,8)                  1.54           estimate D2E/DX2                !
 ! R9    R(6,76)                 1.0917         estimate D2E/DX2                !
 ! R10   R(6,77)                 1.0943         estimate D2E/DX2                !
 ! R11   R(8,9)                  1.0922         estimate D2E/DX2                !
 ! R12   R(8,10)                 1.0917         estimate D2E/DX2                !
 ! R13   R(8,11)                 1.5257         estimate D2E/DX2                !
 ! R14   R(11,12)                1.5293         estimate D2E/DX2                !
 ! R15   R(11,74)                1.0941         estimate D2E/DX2                !
 ! R16   R(11,75)                1.0939         estimate D2E/DX2                !
 ! R17   R(12,13)                1.0946         estimate D2E/DX2                !
 ! R18   R(12,14)                1.5346         estimate D2E/DX2                !
 ! R19   R(12,28)                1.5177         estimate D2E/DX2                !
 ! R20   R(14,15)                1.0901         estimate D2E/DX2                !
 ! R21   R(14,16)                1.0919         estimate D2E/DX2                !
 ! R22   R(14,17)                1.0911         estimate D2E/DX2                !
 ! R23   R(18,19)                1.3946         estimate D2E/DX2                !
 ! R24   R(18,20)                1.3901         estimate D2E/DX2                !
 ! R25   R(19,21)                1.3852         estimate D2E/DX2                !
 ! R26   R(19,22)                1.0829         estimate D2E/DX2                !
 ! R27   R(20,23)                1.3867         estimate D2E/DX2                !
 ! R28   R(20,24)                1.0827         estimate D2E/DX2                !
 ! R29   R(21,25)                1.3943         estimate D2E/DX2                !
 ! R30   R(21,26)                1.0841         estimate D2E/DX2                !
 ! R31   R(23,25)                1.3913         estimate D2E/DX2                !
 ! R32   R(23,27)                1.0843         estimate D2E/DX2                !
 ! R33   R(25,41)                1.5017         estimate D2E/DX2                !
 ! R34   R(28,29)                1.3929         estimate D2E/DX2                !
 ! R35   R(28,30)                1.3933         estimate D2E/DX2                !
 ! R36   R(29,31)                1.3849         estimate D2E/DX2                !
 ! R37   R(29,32)                1.0821         estimate D2E/DX2                !
 ! R38   R(30,33)                1.3862         estimate D2E/DX2                !
 ! R39   R(30,34)                1.0835         estimate D2E/DX2                !
 ! R40   R(31,35)                1.3921         estimate D2E/DX2                !
 ! R41   R(31,36)                1.0833         estimate D2E/DX2                !
 ! R42   R(33,35)                1.3917         estimate D2E/DX2                !
 ! R43   R(33,37)                1.0839         estimate D2E/DX2                !
 ! R44   R(35,38)                1.4998         estimate D2E/DX2                !
 ! R45   R(38,39)                1.0896         estimate D2E/DX2                !
 ! R46   R(38,40)                1.0983         estimate D2E/DX2                !
 ! R47   R(38,68)                1.528          estimate D2E/DX2                !
 ! R48   R(40,71)                1.8965         estimate D2E/DX2                !
 ! R49   R(41,42)                1.0892         estimate D2E/DX2                !
 ! R50   R(41,43)                1.092          estimate D2E/DX2                !
 ! R51   R(41,69)                1.5216         estimate D2E/DX2                !
 ! R52   R(44,45)                1.0879         estimate D2E/DX2                !
 ! R53   R(44,46)                1.0874         estimate D2E/DX2                !
 ! R54   R(44,47)                1.0935         estimate D2E/DX2                !
 ! R55   R(44,68)                1.4958         estimate D2E/DX2                !
 ! R56   R(48,49)                1.0862         estimate D2E/DX2                !
 ! R57   R(48,50)                1.0878         estimate D2E/DX2                !
 ! R58   R(48,51)                1.0871         estimate D2E/DX2                !
 ! R59   R(48,68)                1.4813         estimate D2E/DX2                !
 ! R60   R(52,53)                1.096          estimate D2E/DX2                !
 ! R61   R(52,54)                1.0855         estimate D2E/DX2                !
 ! R62   R(52,55)                1.0883         estimate D2E/DX2                !
 ! R63   R(52,68)                1.4959         estimate D2E/DX2                !
 ! R64   R(53,72)                2.0028         estimate D2E/DX2                !
 ! R65   R(56,57)                1.0874         estimate D2E/DX2                !
 ! R66   R(56,58)                1.0869         estimate D2E/DX2                !
 ! R67   R(56,59)                1.0895         estimate D2E/DX2                !
 ! R68   R(56,69)                1.4982         estimate D2E/DX2                !
 ! R69   R(60,61)                1.0952         estimate D2E/DX2                !
 ! R70   R(60,62)                1.0854         estimate D2E/DX2                !
 ! R71   R(60,63)                1.0881         estimate D2E/DX2                !
 ! R72   R(60,69)                1.4965         estimate D2E/DX2                !
 ! R73   R(61,73)                2.015          estimate D2E/DX2                !
 ! R74   R(64,65)                1.0859         estimate D2E/DX2                !
 ! R75   R(64,66)                1.0878         estimate D2E/DX2                !
 ! R76   R(64,67)                1.0868         estimate D2E/DX2                !
 ! R77   R(64,69)                1.4818         estimate D2E/DX2                !
 ! R78   R(70,71)                1.3078         estimate D2E/DX2                !
 ! R79   R(70,72)                1.287          estimate D2E/DX2                !
 ! R80   R(70,73)                1.2682         estimate D2E/DX2                !
 ! R81   R(71,82)                1.6473         estimate D2E/DX2                !
 ! R82   R(72,79)                1.746          estimate D2E/DX2                !
 ! R83   R(78,79)                0.9853         estimate D2E/DX2                !
 ! R84   R(78,80)                0.9593         estimate D2E/DX2                !
 ! R85   R(81,82)                0.9962         estimate D2E/DX2                !
 ! R86   R(81,83)                0.9571         estimate D2E/DX2                !
 ! A1    A(2,1,3)              111.1333         estimate D2E/DX2                !
 ! A2    A(2,1,4)              110.6706         estimate D2E/DX2                !
 ! A3    A(2,1,5)              110.9067         estimate D2E/DX2                !
 ! A4    A(3,1,4)              108.3            estimate D2E/DX2                !
 ! A5    A(3,1,5)              107.8854         estimate D2E/DX2                !
 ! A6    A(4,1,5)              107.8188         estimate D2E/DX2                !
 ! A7    A(1,2,6)              110.9691         estimate D2E/DX2                !
 ! A8    A(1,2,7)              107.8945         estimate D2E/DX2                !
 ! A9    A(1,2,18)             111.2296         estimate D2E/DX2                !
 ! A10   A(6,2,7)              107.4127         estimate D2E/DX2                !
 ! A11   A(6,2,18)             112.2682         estimate D2E/DX2                !
 ! A12   A(7,2,18)             106.8044         estimate D2E/DX2                !
 ! A13   A(2,6,8)              114.3134         estimate D2E/DX2                !
 ! A14   A(2,6,76)             107.9285         estimate D2E/DX2                !
 ! A15   A(2,6,77)             108.663          estimate D2E/DX2                !
 ! A16   A(8,6,76)             110.4669         estimate D2E/DX2                !
 ! A17   A(8,6,77)             109.5723         estimate D2E/DX2                !
 ! A18   A(76,6,77)            105.5068         estimate D2E/DX2                !
 ! A19   A(6,8,9)              110.2604         estimate D2E/DX2                !
 ! A20   A(6,8,10)             109.8016         estimate D2E/DX2                !
 ! A21   A(6,8,11)             112.4918         estimate D2E/DX2                !
 ! A22   A(9,8,10)             105.9569         estimate D2E/DX2                !
 ! A23   A(9,8,11)             108.9542         estimate D2E/DX2                !
 ! A24   A(10,8,11)            109.158          estimate D2E/DX2                !
 ! A25   A(8,11,12)            114.9844         estimate D2E/DX2                !
 ! A26   A(8,11,74)            109.2513         estimate D2E/DX2                !
 ! A27   A(8,11,75)            108.911          estimate D2E/DX2                !
 ! A28   A(12,11,74)           109.7143         estimate D2E/DX2                !
 ! A29   A(12,11,75)           107.9699         estimate D2E/DX2                !
 ! A30   A(74,11,75)           105.5834         estimate D2E/DX2                !
 ! A31   A(11,12,13)           107.6073         estimate D2E/DX2                !
 ! A32   A(11,12,14)           110.2936         estimate D2E/DX2                !
 ! A33   A(11,12,28)           114.5585         estimate D2E/DX2                !
 ! A34   A(13,12,14)           107.7356         estimate D2E/DX2                !
 ! A35   A(13,12,28)           107.1499         estimate D2E/DX2                !
 ! A36   A(14,12,28)           109.2283         estimate D2E/DX2                !
 ! A37   A(12,14,15)           111.2442         estimate D2E/DX2                !
 ! A38   A(12,14,16)           110.3112         estimate D2E/DX2                !
 ! A39   A(12,14,17)           110.8345         estimate D2E/DX2                !
 ! A40   A(15,14,16)           107.8332         estimate D2E/DX2                !
 ! A41   A(15,14,17)           108.3264         estimate D2E/DX2                !
 ! A42   A(16,14,17)           108.1791         estimate D2E/DX2                !
 ! A43   A(2,18,19)            121.4466         estimate D2E/DX2                !
 ! A44   A(2,18,20)            120.5925         estimate D2E/DX2                !
 ! A45   A(19,18,20)           117.9595         estimate D2E/DX2                !
 ! A46   A(18,19,21)           120.7529         estimate D2E/DX2                !
 ! A47   A(18,19,22)           119.977          estimate D2E/DX2                !
 ! A48   A(21,19,22)           119.265          estimate D2E/DX2                !
 ! A49   A(18,20,23)           121.6725         estimate D2E/DX2                !
 ! A50   A(18,20,24)           119.5629         estimate D2E/DX2                !
 ! A51   A(23,20,24)           118.7574         estimate D2E/DX2                !
 ! A52   A(19,21,25)           120.8889         estimate D2E/DX2                !
 ! A53   A(19,21,26)           119.3836         estimate D2E/DX2                !
 ! A54   A(25,21,26)           119.721          estimate D2E/DX2                !
 ! A55   A(20,23,25)           120.0834         estimate D2E/DX2                !
 ! A56   A(20,23,27)           119.5255         estimate D2E/DX2                !
 ! A57   A(25,23,27)           120.3883         estimate D2E/DX2                !
 ! A58   A(21,25,23)           118.6397         estimate D2E/DX2                !
 ! A59   A(21,25,41)           121.1082         estimate D2E/DX2                !
 ! A60   A(23,25,41)           120.1614         estimate D2E/DX2                !
 ! A61   A(12,28,29)           122.5144         estimate D2E/DX2                !
 ! A62   A(12,28,30)           119.4839         estimate D2E/DX2                !
 ! A63   A(29,28,30)           117.9316         estimate D2E/DX2                !
 ! A64   A(28,29,31)           121.0444         estimate D2E/DX2                !
 ! A65   A(28,29,32)           120.4157         estimate D2E/DX2                !
 ! A66   A(31,29,32)           118.5308         estimate D2E/DX2                !
 ! A67   A(28,30,33)           121.2035         estimate D2E/DX2                !
 ! A68   A(28,30,34)           119.31           estimate D2E/DX2                !
 ! A69   A(33,30,34)           119.4864         estimate D2E/DX2                !
 ! A70   A(29,31,35)           120.7296         estimate D2E/DX2                !
 ! A71   A(29,31,36)           121.3701         estimate D2E/DX2                !
 ! A72   A(35,31,36)           117.8873         estimate D2E/DX2                !
 ! A73   A(30,33,35)           120.5088         estimate D2E/DX2                !
 ! A74   A(30,33,37)           119.4262         estimate D2E/DX2                !
 ! A75   A(35,33,37)           120.0586         estimate D2E/DX2                !
 ! A76   A(31,35,33)           118.5041         estimate D2E/DX2                !
 ! A77   A(31,35,38)           118.7102         estimate D2E/DX2                !
 ! A78   A(33,35,38)           122.7641         estimate D2E/DX2                !
 ! A79   A(35,38,39)           111.8046         estimate D2E/DX2                !
 ! A80   A(35,38,40)           109.5482         estimate D2E/DX2                !
 ! A81   A(35,38,68)           114.1658         estimate D2E/DX2                !
 ! A82   A(39,38,40)           111.1139         estimate D2E/DX2                !
 ! A83   A(39,38,68)           105.1742         estimate D2E/DX2                !
 ! A84   A(40,38,68)           104.7803         estimate D2E/DX2                !
 ! A85   A(38,40,71)           158.8547         estimate D2E/DX2                !
 ! A86   A(25,41,42)           110.7294         estimate D2E/DX2                !
 ! A87   A(25,41,43)           109.8264         estimate D2E/DX2                !
 ! A88   A(25,41,69)           115.1195         estimate D2E/DX2                !
 ! A89   A(42,41,43)           109.529          estimate D2E/DX2                !
 ! A90   A(42,41,69)           105.2749         estimate D2E/DX2                !
 ! A91   A(43,41,69)           106.1149         estimate D2E/DX2                !
 ! A92   A(45,44,46)           110.1458         estimate D2E/DX2                !
 ! A93   A(45,44,47)           109.6745         estimate D2E/DX2                !
 ! A94   A(45,44,68)           108.2904         estimate D2E/DX2                !
 ! A95   A(46,44,47)           112.3771         estimate D2E/DX2                !
 ! A96   A(46,44,68)           108.598          estimate D2E/DX2                !
 ! A97   A(47,44,68)           107.6343         estimate D2E/DX2                !
 ! A98   A(49,48,50)           110.0226         estimate D2E/DX2                !
 ! A99   A(49,48,51)           109.8446         estimate D2E/DX2                !
 ! A100  A(49,48,68)           109.1678         estimate D2E/DX2                !
 ! A101  A(50,48,51)           109.8319         estimate D2E/DX2                !
 ! A102  A(50,48,68)           109.1016         estimate D2E/DX2                !
 ! A103  A(51,48,68)           108.8477         estimate D2E/DX2                !
 ! A104  A(53,52,54)           113.3288         estimate D2E/DX2                !
 ! A105  A(53,52,55)           109.2827         estimate D2E/DX2                !
 ! A106  A(53,52,68)           107.5421         estimate D2E/DX2                !
 ! A107  A(54,52,55)           110.2696         estimate D2E/DX2                !
 ! A108  A(54,52,68)           108.7838         estimate D2E/DX2                !
 ! A109  A(55,52,68)           107.4298         estimate D2E/DX2                !
 ! A110  A(52,53,72)           149.7605         estimate D2E/DX2                !
 ! A111  A(57,56,58)           110.024          estimate D2E/DX2                !
 ! A112  A(57,56,59)           109.5733         estimate D2E/DX2                !
 ! A113  A(57,56,69)           108.2038         estimate D2E/DX2                !
 ! A114  A(58,56,59)           111.1872         estimate D2E/DX2                !
 ! A115  A(58,56,69)           108.868          estimate D2E/DX2                !
 ! A116  A(59,56,69)           108.9221         estimate D2E/DX2                !
 ! A117  A(61,60,62)           111.7938         estimate D2E/DX2                !
 ! A118  A(61,60,63)           110.5992         estimate D2E/DX2                !
 ! A119  A(61,60,69)           107.5171         estimate D2E/DX2                !
 ! A120  A(62,60,63)           110.2366         estimate D2E/DX2                !
 ! A121  A(62,60,69)           108.9776         estimate D2E/DX2                !
 ! A122  A(63,60,69)           107.5727         estimate D2E/DX2                !
 ! A123  A(60,61,73)           151.8239         estimate D2E/DX2                !
 ! A124  A(65,64,66)           109.8828         estimate D2E/DX2                !
 ! A125  A(65,64,67)           110.1001         estimate D2E/DX2                !
 ! A126  A(65,64,69)           109.4156         estimate D2E/DX2                !
 ! A127  A(66,64,67)           109.758          estimate D2E/DX2                !
 ! A128  A(66,64,69)           109.0927         estimate D2E/DX2                !
 ! A129  A(67,64,69)           108.5655         estimate D2E/DX2                !
 ! A130  A(38,68,44)           107.266          estimate D2E/DX2                !
 ! A131  A(38,68,48)           110.7053         estimate D2E/DX2                !
 ! A132  A(38,68,52)           111.1934         estimate D2E/DX2                !
 ! A133  A(44,68,48)           109.9961         estimate D2E/DX2                !
 ! A134  A(44,68,52)           107.9079         estimate D2E/DX2                !
 ! A135  A(48,68,52)           109.7004         estimate D2E/DX2                !
 ! A136  A(41,69,56)           107.6845         estimate D2E/DX2                !
 ! A137  A(41,69,60)           110.4729         estimate D2E/DX2                !
 ! A138  A(41,69,64)           110.7126         estimate D2E/DX2                !
 ! A139  A(56,69,60)           108.3345         estimate D2E/DX2                !
 ! A140  A(56,69,64)           109.6106         estimate D2E/DX2                !
 ! A141  A(60,69,64)           109.9621         estimate D2E/DX2                !
 ! A142  A(71,70,72)           117.9256         estimate D2E/DX2                !
 ! A143  A(71,70,73)           119.9064         estimate D2E/DX2                !
 ! A144  A(72,70,73)           122.0977         estimate D2E/DX2                !
 ! A145  A(40,71,70)           121.2055         estimate D2E/DX2                !
 ! A146  A(40,71,82)           110.8158         estimate D2E/DX2                !
 ! A147  A(70,71,82)           109.3879         estimate D2E/DX2                !
 ! A148  A(53,72,70)           109.6358         estimate D2E/DX2                !
 ! A149  A(53,72,79)           131.968          estimate D2E/DX2                !
 ! A150  A(70,72,79)           106.9102         estimate D2E/DX2                !
 ! A151  A(61,73,70)           112.3572         estimate D2E/DX2                !
 ! A152  A(79,78,80)            99.5501         estimate D2E/DX2                !
 ! A153  A(82,81,83)           101.9805         estimate D2E/DX2                !
 ! A154  L(72,79,78,56,-1)     171.3438         estimate D2E/DX2                !
 ! A155  L(71,82,81,1,-1)      176.4932         estimate D2E/DX2                !
 ! A156  L(72,79,78,56,-2)     190.1002         estimate D2E/DX2                !
 ! A157  L(71,82,81,1,-2)      176.9446         estimate D2E/DX2                !
 ! D1    D(3,1,2,6)           -177.789          estimate D2E/DX2                !
 ! D2    D(3,1,2,7)            -60.3689         estimate D2E/DX2                !
 ! D3    D(3,1,2,18)            56.4615         estimate D2E/DX2                !
 ! D4    D(4,1,2,6)            -57.4161         estimate D2E/DX2                !
 ! D5    D(4,1,2,7)             60.0041         estimate D2E/DX2                !
 ! D6    D(4,1,2,18)           176.8345         estimate D2E/DX2                !
 ! D7    D(5,1,2,6)             62.2031         estimate D2E/DX2                !
 ! D8    D(5,1,2,7)            179.6232         estimate D2E/DX2                !
 ! D9    D(5,1,2,18)           -63.5464         estimate D2E/DX2                !
 ! D10   D(1,2,6,8)            179.8316         estimate D2E/DX2                !
 ! D11   D(1,2,6,76)            56.5019         estimate D2E/DX2                !
 ! D12   D(1,2,6,77)           -57.4439         estimate D2E/DX2                !
 ! D13   D(7,2,6,8)             62.1178         estimate D2E/DX2                !
 ! D14   D(7,2,6,76)           -61.2119         estimate D2E/DX2                !
 ! D15   D(7,2,6,77)          -175.1577         estimate D2E/DX2                !
 ! D16   D(18,2,6,8)           -55.0007         estimate D2E/DX2                !
 ! D17   D(18,2,6,76)         -178.3304         estimate D2E/DX2                !
 ! D18   D(18,2,6,77)           67.7238         estimate D2E/DX2                !
 ! D19   D(1,2,18,19)           66.9424         estimate D2E/DX2                !
 ! D20   D(1,2,18,20)         -113.4987         estimate D2E/DX2                !
 ! D21   D(6,2,18,19)          -58.0822         estimate D2E/DX2                !
 ! D22   D(6,2,18,20)          121.4767         estimate D2E/DX2                !
 ! D23   D(7,2,18,19)         -175.5635         estimate D2E/DX2                !
 ! D24   D(7,2,18,20)            3.9954         estimate D2E/DX2                !
 ! D25   D(2,6,8,9)           -116.9948         estimate D2E/DX2                !
 ! D26   D(2,6,8,10)            -0.612          estimate D2E/DX2                !
 ! D27   D(2,6,8,11)           121.1635         estimate D2E/DX2                !
 ! D28   D(76,6,8,9)             4.9547         estimate D2E/DX2                !
 ! D29   D(76,6,8,10)          121.3376         estimate D2E/DX2                !
 ! D30   D(76,6,8,11)         -116.887          estimate D2E/DX2                !
 ! D31   D(77,6,8,9)           120.7758         estimate D2E/DX2                !
 ! D32   D(77,6,8,10)         -122.8414         estimate D2E/DX2                !
 ! D33   D(77,6,8,11)           -1.0659         estimate D2E/DX2                !
 ! D34   D(6,8,11,12)         -177.8401         estimate D2E/DX2                !
 ! D35   D(6,8,11,74)          -53.9959         estimate D2E/DX2                !
 ! D36   D(6,8,11,75)           60.8661         estimate D2E/DX2                !
 ! D37   D(9,8,11,12)           59.5796         estimate D2E/DX2                !
 ! D38   D(9,8,11,74)         -176.5761         estimate D2E/DX2                !
 ! D39   D(9,8,11,75)          -61.7141         estimate D2E/DX2                !
 ! D40   D(10,8,11,12)         -55.6997         estimate D2E/DX2                !
 ! D41   D(10,8,11,74)          68.1445         estimate D2E/DX2                !
 ! D42   D(10,8,11,75)        -176.9935         estimate D2E/DX2                !
 ! D43   D(8,11,12,13)         -56.7394         estimate D2E/DX2                !
 ! D44   D(8,11,12,14)        -174.0041         estimate D2E/DX2                !
 ! D45   D(8,11,12,28)          62.2833         estimate D2E/DX2                !
 ! D46   D(74,11,12,13)        179.6618         estimate D2E/DX2                !
 ! D47   D(74,11,12,14)         62.397          estimate D2E/DX2                !
 ! D48   D(74,11,12,28)        -61.3156         estimate D2E/DX2                !
 ! D49   D(75,11,12,13)         65.0655         estimate D2E/DX2                !
 ! D50   D(75,11,12,14)        -52.1993         estimate D2E/DX2                !
 ! D51   D(75,11,12,28)       -175.9119         estimate D2E/DX2                !
 ! D52   D(11,12,14,15)        177.6667         estimate D2E/DX2                !
 ! D53   D(11,12,14,16)        -62.7127         estimate D2E/DX2                !
 ! D54   D(11,12,14,17)         57.0761         estimate D2E/DX2                !
 ! D55   D(13,12,14,15)         60.4814         estimate D2E/DX2                !
 ! D56   D(13,12,14,16)       -179.8981         estimate D2E/DX2                !
 ! D57   D(13,12,14,17)        -60.1093         estimate D2E/DX2                !
 ! D58   D(28,12,14,15)        -55.5861         estimate D2E/DX2                !
 ! D59   D(28,12,14,16)         64.0345         estimate D2E/DX2                !
 ! D60   D(28,12,14,17)       -176.1767         estimate D2E/DX2                !
 ! D61   D(11,12,28,29)         33.3142         estimate D2E/DX2                !
 ! D62   D(11,12,28,30)       -149.7974         estimate D2E/DX2                !
 ! D63   D(13,12,28,29)        152.5935         estimate D2E/DX2                !
 ! D64   D(13,12,28,30)        -30.5181         estimate D2E/DX2                !
 ! D65   D(14,12,28,29)        -90.9659         estimate D2E/DX2                !
 ! D66   D(14,12,28,30)         85.9225         estimate D2E/DX2                !
 ! D67   D(2,18,19,21)         179.3971         estimate D2E/DX2                !
 ! D68   D(2,18,19,22)           0.224          estimate D2E/DX2                !
 ! D69   D(20,18,19,21)         -0.173          estimate D2E/DX2                !
 ! D70   D(20,18,19,22)       -179.3462         estimate D2E/DX2                !
 ! D71   D(2,18,20,23)        -179.4695         estimate D2E/DX2                !
 ! D72   D(2,18,20,24)          -0.4576         estimate D2E/DX2                !
 ! D73   D(19,18,20,23)          0.1044         estimate D2E/DX2                !
 ! D74   D(19,18,20,24)        179.1163         estimate D2E/DX2                !
 ! D75   D(18,19,21,25)          0.4569         estimate D2E/DX2                !
 ! D76   D(18,19,21,26)       -178.6104         estimate D2E/DX2                !
 ! D77   D(22,19,21,25)        179.6359         estimate D2E/DX2                !
 ! D78   D(22,19,21,26)          0.5686         estimate D2E/DX2                !
 ! D79   D(18,20,23,25)         -0.3154         estimate D2E/DX2                !
 ! D80   D(18,20,23,27)        179.091          estimate D2E/DX2                !
 ! D81   D(24,20,23,25)       -179.335          estimate D2E/DX2                !
 ! D82   D(24,20,23,27)          0.0713         estimate D2E/DX2                !
 ! D83   D(19,21,25,23)         -0.6538         estimate D2E/DX2                !
 ! D84   D(19,21,25,41)       -177.1969         estimate D2E/DX2                !
 ! D85   D(26,21,25,23)        178.4103         estimate D2E/DX2                !
 ! D86   D(26,21,25,41)          1.8672         estimate D2E/DX2                !
 ! D87   D(20,23,25,21)          0.5796         estimate D2E/DX2                !
 ! D88   D(20,23,25,41)        177.1564         estimate D2E/DX2                !
 ! D89   D(27,23,25,21)       -178.8216         estimate D2E/DX2                !
 ! D90   D(27,23,25,41)         -2.2448         estimate D2E/DX2                !
 ! D91   D(21,25,41,42)         23.5002         estimate D2E/DX2                !
 ! D92   D(21,25,41,43)        144.5909         estimate D2E/DX2                !
 ! D93   D(21,25,41,69)        -95.745          estimate D2E/DX2                !
 ! D94   D(23,25,41,42)       -152.9906         estimate D2E/DX2                !
 ! D95   D(23,25,41,43)        -31.9            estimate D2E/DX2                !
 ! D96   D(23,25,41,69)         87.7641         estimate D2E/DX2                !
 ! D97   D(12,28,29,31)        175.123          estimate D2E/DX2                !
 ! D98   D(12,28,29,32)         -5.9907         estimate D2E/DX2                !
 ! D99   D(30,28,29,31)         -1.8113         estimate D2E/DX2                !
 ! D100  D(30,28,29,32)        177.075          estimate D2E/DX2                !
 ! D101  D(12,28,30,33)       -175.0762         estimate D2E/DX2                !
 ! D102  D(12,28,30,34)          5.0013         estimate D2E/DX2                !
 ! D103  D(29,28,30,33)          1.9541         estimate D2E/DX2                !
 ! D104  D(29,28,30,34)       -177.9684         estimate D2E/DX2                !
 ! D105  D(28,29,31,35)         -0.4827         estimate D2E/DX2                !
 ! D106  D(28,29,31,36)        178.1806         estimate D2E/DX2                !
 ! D107  D(32,29,31,35)       -179.3895         estimate D2E/DX2                !
 ! D108  D(32,29,31,36)         -0.7262         estimate D2E/DX2                !
 ! D109  D(28,30,33,35)          0.1975         estimate D2E/DX2                !
 ! D110  D(28,30,33,37)       -178.8783         estimate D2E/DX2                !
 ! D111  D(34,30,33,35)       -179.8801         estimate D2E/DX2                !
 ! D112  D(34,30,33,37)          1.044          estimate D2E/DX2                !
 ! D113  D(29,31,35,33)          2.6362         estimate D2E/DX2                !
 ! D114  D(29,31,35,38)       -179.006          estimate D2E/DX2                !
 ! D115  D(36,31,35,33)       -176.0725         estimate D2E/DX2                !
 ! D116  D(36,31,35,38)          2.2853         estimate D2E/DX2                !
 ! D117  D(30,33,35,31)         -2.4918         estimate D2E/DX2                !
 ! D118  D(30,33,35,38)        179.2211         estimate D2E/DX2                !
 ! D119  D(37,33,35,31)        176.5783         estimate D2E/DX2                !
 ! D120  D(37,33,35,38)         -1.7089         estimate D2E/DX2                !
 ! D121  D(31,35,38,39)       -146.8414         estimate D2E/DX2                !
 ! D122  D(31,35,38,40)        -23.2161         estimate D2E/DX2                !
 ! D123  D(31,35,38,68)         93.9157         estimate D2E/DX2                !
 ! D124  D(33,35,38,39)         31.4424         estimate D2E/DX2                !
 ! D125  D(33,35,38,40)        155.0678         estimate D2E/DX2                !
 ! D126  D(33,35,38,68)        -87.8005         estimate D2E/DX2                !
 ! D127  D(35,38,40,71)         46.2297         estimate D2E/DX2                !
 ! D128  D(39,38,40,71)        170.2603         estimate D2E/DX2                !
 ! D129  D(68,38,40,71)        -76.656          estimate D2E/DX2                !
 ! D130  D(35,38,68,44)       -170.9776         estimate D2E/DX2                !
 ! D131  D(35,38,68,48)         69.0027         estimate D2E/DX2                !
 ! D132  D(35,38,68,52)        -53.211          estimate D2E/DX2                !
 ! D133  D(39,38,68,44)         66.0989         estimate D2E/DX2                !
 ! D134  D(39,38,68,48)        -53.9209         estimate D2E/DX2                !
 ! D135  D(39,38,68,52)       -176.1345         estimate D2E/DX2                !
 ! D136  D(40,38,68,44)        -51.1312         estimate D2E/DX2                !
 ! D137  D(40,38,68,48)       -171.151          estimate D2E/DX2                !
 ! D138  D(40,38,68,52)         66.6354         estimate D2E/DX2                !
 ! D139  D(38,40,71,70)         97.5028         estimate D2E/DX2                !
 ! D140  D(38,40,71,82)       -132.2929         estimate D2E/DX2                !
 ! D141  D(25,41,69,56)        175.2814         estimate D2E/DX2                !
 ! D142  D(25,41,69,60)        -66.5891         estimate D2E/DX2                !
 ! D143  D(25,41,69,64)         55.4681         estimate D2E/DX2                !
 ! D144  D(42,41,69,56)         53.0536         estimate D2E/DX2                !
 ! D145  D(42,41,69,60)        171.1831         estimate D2E/DX2                !
 ! D146  D(42,41,69,64)        -66.7597         estimate D2E/DX2                !
 ! D147  D(43,41,69,56)        -63.0248         estimate D2E/DX2                !
 ! D148  D(43,41,69,60)         55.1047         estimate D2E/DX2                !
 ! D149  D(43,41,69,64)        177.1619         estimate D2E/DX2                !
 ! D150  D(45,44,68,38)       -172.5384         estimate D2E/DX2                !
 ! D151  D(45,44,68,48)        -52.0675         estimate D2E/DX2                !
 ! D152  D(45,44,68,52)         67.5747         estimate D2E/DX2                !
 ! D153  D(46,44,68,38)        -52.938          estimate D2E/DX2                !
 ! D154  D(46,44,68,48)         67.5329         estimate D2E/DX2                !
 ! D155  D(46,44,68,52)       -172.8249         estimate D2E/DX2                !
 ! D156  D(47,44,68,38)         68.9626         estimate D2E/DX2                !
 ! D157  D(47,44,68,48)       -170.5666         estimate D2E/DX2                !
 ! D158  D(47,44,68,52)        -50.9243         estimate D2E/DX2                !
 ! D159  D(49,48,68,38)        -61.551          estimate D2E/DX2                !
 ! D160  D(49,48,68,44)       -179.9234         estimate D2E/DX2                !
 ! D161  D(49,48,68,52)         61.5314         estimate D2E/DX2                !
 ! D162  D(50,48,68,38)         58.7132         estimate D2E/DX2                !
 ! D163  D(50,48,68,44)        -59.6591         estimate D2E/DX2                !
 ! D164  D(50,48,68,52)       -178.2044         estimate D2E/DX2                !
 ! D165  D(51,48,68,38)        178.5538         estimate D2E/DX2                !
 ! D166  D(51,48,68,44)         60.1814         estimate D2E/DX2                !
 ! D167  D(51,48,68,52)        -58.3638         estimate D2E/DX2                !
 ! D168  D(54,52,53,72)       -174.2295         estimate D2E/DX2                !
 ! D169  D(55,52,53,72)         62.3632         estimate D2E/DX2                !
 ! D170  D(68,52,53,72)        -53.9583         estimate D2E/DX2                !
 ! D171  D(53,52,68,38)        -61.3811         estimate D2E/DX2                !
 ! D172  D(53,52,68,44)         55.9958         estimate D2E/DX2                !
 ! D173  D(53,52,68,48)        175.8249         estimate D2E/DX2                !
 ! D174  D(54,52,68,38)         61.7254         estimate D2E/DX2                !
 ! D175  D(54,52,68,44)        179.1023         estimate D2E/DX2                !
 ! D176  D(54,52,68,48)        -61.0686         estimate D2E/DX2                !
 ! D177  D(55,52,68,38)       -178.9132         estimate D2E/DX2                !
 ! D178  D(55,52,68,44)        -61.5363         estimate D2E/DX2                !
 ! D179  D(55,52,68,48)         58.2928         estimate D2E/DX2                !
 ! D180  D(52,53,72,70)        122.1097         estimate D2E/DX2                !
 ! D181  D(52,53,72,79)       -100.4768         estimate D2E/DX2                !
 ! D182  D(57,56,69,41)       -177.7006         estimate D2E/DX2                !
 ! D183  D(57,56,69,60)         62.8005         estimate D2E/DX2                !
 ! D184  D(57,56,69,64)        -57.191          estimate D2E/DX2                !
 ! D185  D(58,56,69,41)        -58.1422         estimate D2E/DX2                !
 ! D186  D(58,56,69,60)       -177.6411         estimate D2E/DX2                !
 ! D187  D(58,56,69,64)         62.3674         estimate D2E/DX2                !
 ! D188  D(59,56,69,41)         63.2513         estimate D2E/DX2                !
 ! D189  D(59,56,69,60)        -56.2476         estimate D2E/DX2                !
 ! D190  D(59,56,69,64)       -176.2391         estimate D2E/DX2                !
 ! D191  D(62,60,61,73)       -151.2223         estimate D2E/DX2                !
 ! D192  D(63,60,61,73)         85.5305         estimate D2E/DX2                !
 ! D193  D(69,60,61,73)        -31.6537         estimate D2E/DX2                !
 ! D194  D(61,60,69,41)        -60.2557         estimate D2E/DX2                !
 ! D195  D(61,60,69,56)         57.4752         estimate D2E/DX2                !
 ! D196  D(61,60,69,64)        177.2467         estimate D2E/DX2                !
 ! D197  D(62,60,69,41)         61.0927         estimate D2E/DX2                !
 ! D198  D(62,60,69,56)        178.8236         estimate D2E/DX2                !
 ! D199  D(62,60,69,64)        -61.4049         estimate D2E/DX2                !
 ! D200  D(63,60,69,41)       -179.3962         estimate D2E/DX2                !
 ! D201  D(63,60,69,56)        -61.6653         estimate D2E/DX2                !
 ! D202  D(63,60,69,64)         58.1062         estimate D2E/DX2                !
 ! D203  D(60,61,73,70)         85.2043         estimate D2E/DX2                !
 ! D204  D(65,64,69,41)        -63.0356         estimate D2E/DX2                !
 ! D205  D(65,64,69,56)        178.3126         estimate D2E/DX2                !
 ! D206  D(65,64,69,60)         59.3203         estimate D2E/DX2                !
 ! D207  D(66,64,69,41)         57.2025         estimate D2E/DX2                !
 ! D208  D(66,64,69,56)        -61.4493         estimate D2E/DX2                !
 ! D209  D(66,64,69,60)        179.5584         estimate D2E/DX2                !
 ! D210  D(67,64,69,41)        176.7813         estimate D2E/DX2                !
 ! D211  D(67,64,69,56)         58.1295         estimate D2E/DX2                !
 ! D212  D(67,64,69,60)        -60.8628         estimate D2E/DX2                !
 ! D213  D(72,70,71,40)        -36.203          estimate D2E/DX2                !
 ! D214  D(72,70,71,82)       -167.019          estimate D2E/DX2                !
 ! D215  D(73,70,71,40)        146.7803         estimate D2E/DX2                !
 ! D216  D(73,70,71,82)         15.9643         estimate D2E/DX2                !
 ! D217  D(71,70,72,53)        -13.7882         estimate D2E/DX2                !
 ! D218  D(71,70,72,79)       -162.0608         estimate D2E/DX2                !
 ! D219  D(73,70,72,53)        163.159          estimate D2E/DX2                !
 ! D220  D(73,70,72,79)         14.8865         estimate D2E/DX2                !
 ! D221  D(71,70,73,61)         42.8393         estimate D2E/DX2                !
 ! D222  D(72,70,73,61)       -134.049          estimate D2E/DX2                !
 ! D223  D(40,71,81,83)       -124.2988         estimate D2E/DX2                !
 ! D224  D(70,71,81,83)         12.9587         estimate D2E/DX2                !
 ! D225  D(53,72,78,80)       -165.9078         estimate D2E/DX2                !
 ! D226  D(70,72,78,80)        -30.7277         estimate D2E/DX2                !
 --------------------------------------------------------------------------------
 Trust Radius=3.00D-01 FncErr=1.00D-07 GrdErr=1.00D-06 EigMax=2.50D+02 EigMin=1.00D-04
 Number of steps in this run=    479 maximum allowed number of steps=    498.
 GradGradGradGradGradGradGradGradGradGradGradGradGradGradGradGradGradGrad

 Leave Link  103 at Fri Mar  8 15:00:04 2024, MaxMem=  2013265920 cpu:               0.5 elap:               0.1
 (Enter /packages/apps/gaussian/g16/g16/l202.exe)
 Stoichiometry    C28H48N2O5
 Framework group  C1[X(C28H48N2O5)]
 Deg. of freedom   243
 Full point group                 C1      NOp   1
 Largest Abelian subgroup         C1      NOp   1
 Largest concise Abelian subgroup C1      NOp   1
                         Standard orientation:                         
 ---------------------------------------------------------------------
 Center     Atomic      Atomic             Coordinates (Angstroms)
 Number     Number       Type             X           Y           Z
 ---------------------------------------------------------------------
      1          6           0       -5.211735   -3.200892    0.980913
      2          6           0       -4.505063   -1.847339    1.086835
      3          1           0       -4.649513   -3.979192    1.496925
      4          1           0       -6.208979   -3.150121    1.420428
      5          1           0       -5.321519   -3.502491   -0.062692
      6          6           0       -5.327029   -0.743606    0.406025
      7          1           0       -4.427530   -1.590925    2.146692
      8          6           0       -4.686595    0.655372    0.470928
      9          1           0       -5.323813    1.337076    1.038450
     10          1           0       -3.741646    0.604636    1.015285
     11          6           0       -4.436170    1.247412   -0.912761
     12          6           0       -3.753278    2.615772   -0.915922
     13          1           0       -4.370198    3.295066   -0.319246
     14          6           0       -3.688719    3.175094   -2.343479
     15          1           0       -3.241239    4.169041   -2.358426
     16          1           0       -3.082093    2.525704   -2.977903
     17          1           0       -4.686586    3.241508   -2.779744
     18          6           0       -3.089943   -1.923584    0.549841
     19          6           0       -2.836265   -2.143352   -0.803733
     20          6           0       -2.001312   -1.765872    1.399727
     21          6           0       -1.537106   -2.198095   -1.281101
     22          1           0       -3.660198   -2.260078   -1.496644
     23          6           0       -0.697470   -1.820628    0.930686
     24          1           0       -2.168558   -1.579641    2.453121
     25          6           0       -0.451101   -2.044520   -0.420199
     26          1           0       -1.365760   -2.347483   -2.341081
     27          1           0        0.125590   -1.678210    1.622121
     28          6           0       -2.361336    2.627499   -0.311072
     29          6           0       -1.492284    1.543561   -0.411305
     30          6           0       -1.896304    3.780936    0.317116
     31          6           0       -0.194062    1.622685    0.064292
     32          1           0       -1.826540    0.612014   -0.848940
     33          6           0       -0.596838    3.865818    0.792116
     34          1           0       -2.564185    4.625709    0.436891
     35          6           0        0.279679    2.794581    0.647416
     36          1           0        0.477166    0.773738    0.015434
     37          1           0       -0.270800    4.770299    1.292547
     38          6           0        1.700152    2.837662    1.126731
     39          1           0        1.810610    3.467190    2.009191
     40          1           0        2.053001    1.816219    1.322737
     41          6           0        0.957417   -2.040725   -0.941054
     42          1           0        0.979046   -1.755601   -1.992028
     43          1           0        1.564935   -1.342986   -0.360956
     44          6           0        4.063779    3.170807    0.645551
     45          1           0        4.774024    3.682481   -0.000432
     46          1           0        4.114294    3.576526    1.653199
     47          1           0        4.252680    2.094043    0.620371
     48          6           0        2.460207    4.851864   -0.095994
     49          1           0        1.457909    5.004514   -0.485871
     50          1           0        2.571845    5.366117    0.856002
     51          1           0        3.193358    5.226647   -0.805839
     52          6           0        2.580456    2.687128   -1.203024
     53          1           0        2.828103    1.634263   -1.025762
     54          1           0        1.580622    2.832633   -1.599828
     55          1           0        3.319155    3.122123   -1.873447
     56          6           0        3.008486   -3.217147   -1.536012
     57          1           0        3.511616   -4.181088   -1.529704
     58          1           0        2.854936   -2.884184   -2.559145
     59          1           0        3.596563   -2.494770   -0.970897
     60          6           0        1.900970   -3.783530    0.548965
     61          1           0        2.519357   -3.009496    1.015812
     62          1           0        0.940533   -3.885116    1.044243
     63          1           0        2.423346   -4.737960    0.541416
     64          6           0        0.895738   -4.427425   -1.578047
     65          1           0       -0.058405   -4.564757   -1.078148
     66          1           0        0.732587   -4.117424   -2.607942
     67          1           0        1.464175   -5.353502   -1.558790
     68          7           0        2.687749    3.402204    0.106525
     69          7           0        1.674327   -3.381238   -0.874527
     70          6           0        3.496140   -0.468720    0.565249
     71          8           0        2.358104   -0.034313    1.041277
     72          8           0        4.091529    0.248694   -0.322033
     73          8           0        3.949950   -1.592606    0.938549
     74          1           0       -3.849070    0.540541   -1.506740
     75          1           0       -5.392518    1.346315   -1.434434
     76          1           0       -6.317845   -0.731460    0.864114
     77          1           0       -5.491303   -1.023459   -0.639084
     78          8           0        5.826393   -1.526312   -1.421274
     79          1           0        5.250470   -0.786530   -1.118051
     80          1           0        5.912307   -2.009304   -0.596912
     81          8           0        1.679952   -1.481460    3.144432
     82          1           0        1.958476   -0.904040    2.381937
     83          1           0        2.487164   -1.957915    3.338053
 ---------------------------------------------------------------------
 Rotational constants (GHZ):           0.1260552           0.0922020           0.0620084
 Leave Link  202 at Fri Mar  8 15:00:04 2024, MaxMem=  2013265920 cpu:               0.6 elap:               0.1
 (Enter /packages/apps/gaussian/g16/g16/l301.exe)
 Standard basis: 6-311+G(2d,2p) (5D, 7F)
 Ernie: Thresh=  0.10000D-02 Tol=  0.10000D-05 Strict=F.
 There are  1447 symmetry adapted cartesian basis functions of A   symmetry.
 There are  1377 symmetry adapted basis functions of A   symmetry.
  1377 basis functions,  1998 primitive gaussians,  1447 cartesian basis functions
   135 alpha electrons      135 beta electrons
       nuclear repulsion energy      4244.7466284094 Hartrees.
 IExCor= 4639 DFT=T Ex+Corr=wB97XD ExCW=0 ScaHFX=  1.000000
 ScaDFX=  1.000000  1.000000  1.000000  1.000000 ScalE2=  1.000000  1.000000
 IRadAn=      5 IRanWt=     -1 IRanGd=            0 ICorTp=0 IEmpDi=121
 HFx  wShort=  0.000000 wLong=  0.200000 cFull=  0.222036 cShort=  0.000000 cLong=  0.777964
 DFx  wShort=  0.000000 wLong=  0.200000 cFull=  0.000000 cShort=  0.000000 cLong=  1.000000
 NAtoms=   83 NActive=   83 NUniq=   83 SFac= 1.00D+00 NAtFMM=   60 NAOKFM=T Big=T
 Integral buffers will be    131072 words long.
 Raffenetti 2 integral format.
 Two-electron integral symmetry is turned on.
 R6Disp:  Grimme-D2 Dispersion energy=       -0.0937480789 Hartrees.
 Nuclear repulsion after empirical dispersion term =     4244.6528803305 Hartrees.
 Leave Link  301 at Fri Mar  8 15:00:04 2024, MaxMem=  2013265920 cpu:               0.8 elap:               0.1
 (Enter /packages/apps/gaussian/g16/g16/l302.exe)
 NPDir=0 NMtPBC=     1 NCelOv=     1 NCel=       1 NClECP=     1 NCelD=      1
         NCelK=      1 NCelE2=     1 NClLst=     1 CellRange=     0.0.
 One-electron integrals computed using PRISM.
 One-electron integral symmetry used in STVInt
 NBasis=  1377 RedAO= T EigKep=  1.20D-06  NBF=  1377
 NBsUse=  1368 1.00D-06 EigRej=  8.59D-07 NBFU=  1368
 Precomputing XC quadrature grid using
 IXCGrd= 4 IRadAn=           5 IRanWt=          -1 IRanGd=           0 AccXCQ= 0.00D+00.
 Generated NRdTot=       0 NPtTot=           0 NUsed=           0 NTot=          32
 NSgBfM=  1432  1432  1432  1432  1432 MxSgAt=    83 MxSgA2=    83.
 Leave Link  302 at Fri Mar  8 15:00:09 2024, MaxMem=  2013265920 cpu:              86.4 elap:               4.7
 (Enter /packages/apps/gaussian/g16/g16/l303.exe)
 DipDrv:  MaxL=1.
 Leave Link  303 at Fri Mar  8 15:00:10 2024, MaxMem=  2013265920 cpu:               4.7 elap:               0.3
 (Enter /packages/apps/gaussian/g16/g16/l401.exe)
 ExpMin= 4.38D-02 ExpMax= 8.59D+03 ExpMxC= 1.30D+03 IAcc=3 IRadAn=         5 AccDes= 0.00D+00
 Harris functional with IExCor= 4639 and IRadAn=       5 diagonalized for initial guess.
 HarFok:  IExCor= 4639 AccDes= 0.00D+00 IRadAn=         5 IDoV= 1 UseB2=F ITyADJ=14
 ICtDFT=  3500011 ScaDFX=  1.000000  1.000000  1.000000  1.000000
 FoFCou: FMM=F IPFlag=           0 FMFlag=      100000 FMFlg1=        2001
         NFxFlg=           0 DoJE=T BraDBF=F KetDBF=T FulRan=T
         wScrn=  0.000000 ICntrl=       500 IOpCl=  0 I1Cent=   200000004 NGrid=           0
         NMat0=    1 NMatS0=      1 NMatT0=    0 NMatD0=    1 NMtDS0=    0 NMtDT0=    0
 Petite list used in FoFCou.
 Harris En= -1511.35977819507    
 JPrj=0 DoOrth=F DoCkMO=F.
 Leave Link  401 at Fri Mar  8 15:00:17 2024, MaxMem=  2013265920 cpu:             142.5 elap:               7.2
 (Enter /packages/apps/gaussian/g16/g16/l502.exe)
 Integral symmetry usage will be decided dynamically.
 Closed shell SCF:
 Using DIIS extrapolation, IDIIS=  1040.
 NGot=  2013265920 LenX=  2009036073 LenY=  2006940817
 Requested convergence on RMS density matrix=1.00D-08 within 128 cycles.
 Requested convergence on MAX density matrix=1.00D-06.
 Requested convergence on             energy=1.00D-06.
 No special actions if energy rises.
 Fock matrices will be formed incrementally for  20 cycles.

 Cycle   1  Pass 1  IDiag  1:
 FoFJK:  IHMeth= 1 ICntrl=       0 DoSepK=T KAlg= 0 I1Cent=           0 FoldK=F
 IRaf=         1 NMat=       1 IRICut=       1 DoRegI=T DoRafI=F ISym2E= 0 IDoP0=0 IntGTp=1.
 FoFCou: FMM=T IPFlag=           0 FMFlag=      100000 FMFlg1=        2001
         NFxFlg=           0 DoJE=T BraDBF=F KetDBF=F FulRan=T
         wScrn=  0.000000 ICntrl=       500 IOpCl=  0 I1Cent=           0 NGrid=           0
         NMat0=    1 NMatS0=      1 NMatT0=    0 NMatD0=    1 NMtDS0=    0 NMtDT0=    0
 Symmetry not used in FoFCou.
 FMM levels:  10  Number of levels for PrismC:   9
 E= -1580.96829113191    
 DIIS: error= 4.20D-02 at cycle   1 NSaved=   1.
 NSaved= 1 IEnMin= 1 EnMin= -1580.96829113191     IErMin= 1 ErrMin= 4.20D-02
 ErrMax= 4.20D-02  0.00D+00 EMaxC= 1.00D-01 BMatC= 3.43D+00 BMatP= 3.43D+00
 IDIUse=3 WtCom= 5.80D-01 WtEn= 4.20D-01
 Coeff-Com:  0.100D+01
 Coeff-En:   0.100D+01
 Coeff:      0.100D+01
 Gap=     0.304 Goal=   None    Shift=    0.000
 GapD=    0.304 DampG=1.000 DampE=0.500 DampFc=0.5000 IDamp=-1.
 Damping current iteration by 5.00D-01
 RMSDP=4.53D-03 MaxDP=1.29D+00              OVMax= 1.14D-01

 Cycle   2  Pass 1  IDiag  1:
 RMSU=  1.42D-03    CP:  8.68D-01
 E= -1581.23206899334     Delta-E=       -0.263777861427 Rises=F Damp=T
 DIIS: error= 2.01D-02 at cycle   2 NSaved=   2.
 NSaved= 2 IEnMin= 2 EnMin= -1581.23206899334     IErMin= 2 ErrMin= 2.01D-02
 ErrMax= 2.01D-02  0.00D+00 EMaxC= 1.00D-01 BMatC= 7.11D-01 BMatP= 3.43D+00
 IDIUse=3 WtCom= 7.99D-01 WtEn= 2.01D-01
 Coeff-Com: -0.576D+00 0.158D+01
 Coeff-En:   0.000D+00 0.100D+01
 Coeff:     -0.460D+00 0.146D+01
 Gap=     0.291 Goal=   None    Shift=    0.000
 RMSDP=2.76D-03 MaxDP=7.18D-01 DE=-2.64D-01 OVMax= 1.13D-01

 Cycle   3  Pass 1  IDiag  1:
 RMSU=  1.18D-03    CP:  6.93D-01  1.59D+00
 E= -1581.37981901833     Delta-E=       -0.147750024984 Rises=F Damp=F
 DIIS: error= 8.83D-03 at cycle   3 NSaved=   3.
 NSaved= 3 IEnMin= 3 EnMin= -1581.37981901833     IErMin= 3 ErrMin= 8.83D-03
 ErrMax= 8.83D-03  0.00D+00 EMaxC= 1.00D-01 BMatC= 1.88D-01 BMatP= 7.11D-01
 IDIUse=3 WtCom= 9.12D-01 WtEn= 8.83D-02
 Coeff-Com: -0.355D+00 0.758D+00 0.597D+00
 Coeff-En:   0.000D+00 0.000D+00 0.100D+01
 Coeff:     -0.323D+00 0.691D+00 0.632D+00
 Gap=     0.274 Goal=   None    Shift=    0.000
 RMSDP=5.96D-04 MaxDP=1.02D-01 DE=-1.48D-01 OVMax= 4.80D-02

 Cycle   4  Pass 1  IDiag  1:
 RMSU=  3.30D-04    CP:  7.10D-01  1.80D+00  7.23D-01
 E= -1581.52719511226     Delta-E=       -0.147376093931 Rises=F Damp=F
 DIIS: error= 1.17D-03 at cycle   4 NSaved=   4.
 NSaved= 4 IEnMin= 4 EnMin= -1581.52719511226     IErMin= 4 ErrMin= 1.17D-03
 ErrMax= 1.17D-03  0.00D+00 EMaxC= 1.00D-01 BMatC= 4.46D-03 BMatP= 1.88D-01
 IDIUse=3 WtCom= 9.88D-01 WtEn= 1.17D-02
 Coeff-Com: -0.101D+00 0.215D+00 0.253D+00 0.633D+00
 Coeff-En:   0.000D+00 0.000D+00 0.000D+00 0.100D+01
 Coeff:     -0.995D-01 0.212D+00 0.250D+00 0.637D+00
 Gap=     0.273 Goal=   None    Shift=    0.000
 RMSDP=1.26D-04 MaxDP=1.62D-02 DE=-1.47D-01 OVMax= 7.43D-03

 Cycle   5  Pass 1  IDiag  1:
 RMSU=  1.04D-04    CP:  7.08D-01  1.81D+00  7.78D-01  9.51D-01
 E= -1581.53071140869     Delta-E=       -0.003516296430 Rises=F Damp=F
 DIIS: error= 1.80D-04 at cycle   5 NSaved=   5.
 NSaved= 5 IEnMin= 5 EnMin= -1581.53071140869     IErMin= 5 ErrMin= 1.80D-04
 ErrMax= 1.80D-04  0.00D+00 EMaxC= 1.00D-01 BMatC= 1.38D-04 BMatP= 4.46D-03
 IDIUse=3 WtCom= 9.98D-01 WtEn= 1.80D-03
 Coeff-Com:  0.142D-01-0.304D-01 0.668D-02 0.217D+00 0.793D+00
 Coeff-En:   0.000D+00 0.000D+00 0.000D+00 0.000D+00 0.100D+01
 Coeff:      0.141D-01-0.304D-01 0.667D-02 0.216D+00 0.793D+00
 Gap=     0.271 Goal=   None    Shift=    0.000
 RMSDP=5.74D-05 MaxDP=1.36D-02 DE=-3.52D-03 OVMax= 2.76D-03

 Cycle   6  Pass 1  IDiag  1:
 RMSU=  2.77D-05    CP:  7.10D-01  1.82D+00  7.91D-01  1.08D+00  1.08D+00
 E= -1581.53081903986     Delta-E=       -0.000107631173 Rises=F Damp=F
 DIIS: error= 9.64D-05 at cycle   6 NSaved=   6.
 NSaved= 6 IEnMin= 6 EnMin= -1581.53081903986     IErMin= 6 ErrMin= 9.64D-05
 ErrMax= 9.64D-05  0.00D+00 EMaxC= 1.00D-01 BMatC= 3.54D-05 BMatP= 1.38D-04
 IDIUse=1 WtCom= 1.00D+00 WtEn= 0.00D+00
 Coeff-Com:  0.162D-01-0.347D-01-0.185D-01 0.550D-01 0.417D+00 0.565D+00
 Coeff:      0.162D-01-0.347D-01-0.185D-01 0.550D-01 0.417D+00 0.565D+00
 Gap=     0.271 Goal=   None    Shift=    0.000
 RMSDP=2.00D-05 MaxDP=5.67D-03 DE=-1.08D-04 OVMax= 1.13D-03

 Cycle   7  Pass 1  IDiag  1:
 RMSU=  9.21D-06    CP:  7.10D-01  1.82D+00  7.96D-01  1.10D+00  1.18D+00
                    CP:  9.50D-01
 E= -1581.53084920661     Delta-E=       -0.000030166749 Rises=F Damp=F
 DIIS: error= 1.94D-05 at cycle   7 NSaved=   7.
 NSaved= 7 IEnMin= 7 EnMin= -1581.53084920661     IErMin= 7 ErrMin= 1.94D-05
 ErrMax= 1.94D-05  0.00D+00 EMaxC= 1.00D-01 BMatC= 1.22D-06 BMatP= 3.54D-05
 IDIUse=1 WtCom= 1.00D+00 WtEn= 0.00D+00
 Coeff-Com:  0.348D-02-0.741D-02-0.575D-02-0.255D-02 0.502D-01 0.173D+00
 Coeff-Com:  0.789D+00
 Coeff:      0.348D-02-0.741D-02-0.575D-02-0.255D-02 0.502D-01 0.173D+00
 Coeff:      0.789D+00
 Gap=     0.271 Goal=   None    Shift=    0.000
 RMSDP=7.36D-06 MaxDP=1.88D-03 DE=-3.02D-05 OVMax= 3.10D-04

 Cycle   8  Pass 1  IDiag  1:
 RMSU=  3.01D-06    CP:  7.10D-01  1.82D+00  7.98D-01  1.12D+00  1.20D+00
                    CP:  1.02D+00  1.13D+00
 E= -1581.53085031763     Delta-E=       -0.000001111024 Rises=F Damp=F
 DIIS: error= 8.57D-06 at cycle   8 NSaved=   8.
 NSaved= 8 IEnMin= 8 EnMin= -1581.53085031763     IErMin= 8 ErrMin= 8.57D-06
 ErrMax= 8.57D-06  0.00D+00 EMaxC= 1.00D-01 BMatC= 2.69D-07 BMatP= 1.22D-06
 IDIUse=1 WtCom= 1.00D+00 WtEn= 0.00D+00
 Coeff-Com:  0.784D-04-0.129D-03-0.861D-03-0.657D-02-0.185D-01 0.221D-01
 Coeff-Com:  0.367D+00 0.637D+00
 Coeff:      0.784D-04-0.129D-03-0.861D-03-0.657D-02-0.185D-01 0.221D-01
 Coeff:      0.367D+00 0.637D+00
 Gap=     0.271 Goal=   None    Shift=    0.000
 RMSDP=2.39D-06 MaxDP=6.70D-04 DE=-1.11D-06 OVMax= 1.26D-04

 Cycle   9  Pass 1  IDiag  1:
 RMSU=  1.14D-06    CP:  7.11D-01  1.82D+00  7.98D-01  1.12D+00  1.21D+00
                    CP:  1.04D+00  1.19D+00  1.00D+00
 E= -1581.53085056059     Delta-E=       -0.000000242956 Rises=F Damp=F
 DIIS: error= 2.12D-06 at cycle   9 NSaved=   9.
 NSaved= 9 IEnMin= 9 EnMin= -1581.53085056059     IErMin= 9 ErrMin= 2.12D-06
 ErrMax= 2.12D-06  0.00D+00 EMaxC= 1.00D-01 BMatC= 2.80D-08 BMatP= 2.69D-07
 IDIUse=1 WtCom= 1.00D+00 WtEn= 0.00D+00
 Coeff-Com: -0.402D-03 0.869D-03 0.374D-03-0.252D-02-0.142D-01-0.126D-01
 Coeff-Com:  0.564D-01 0.266D+00 0.706D+00
 Coeff:     -0.402D-03 0.869D-03 0.374D-03-0.252D-02-0.142D-01-0.126D-01
 Coeff:      0.564D-01 0.266D+00 0.706D+00
 Gap=     0.271 Goal=   None    Shift=    0.000
 RMSDP=1.08D-06 MaxDP=2.78D-04 DE=-2.43D-07 OVMax= 5.35D-05

 Cycle  10  Pass 1  IDiag  1:
 RMSU=  3.80D-07    CP:  7.11D-01  1.82D+00  7.98D-01  1.12D+00  1.22D+00
                    CP:  1.05D+00  1.24D+00  1.11D+00  1.14D+00
 E= -1581.53085059695     Delta-E=       -0.000000036363 Rises=F Damp=F
 DIIS: error= 7.38D-07 at cycle  10 NSaved=  10.
 NSaved=10 IEnMin=10 EnMin= -1581.53085059695     IErMin=10 ErrMin= 7.38D-07
 ErrMax= 7.38D-07  0.00D+00 EMaxC= 1.00D-01 BMatC= 2.40D-09 BMatP= 2.80D-08
 IDIUse=1 WtCom= 1.00D+00 WtEn= 0.00D+00
 Coeff-Com: -0.115D-03 0.240D-03 0.207D-03 0.146D-03-0.143D-02-0.618D-02
 Coeff-Com: -0.340D-01-0.179D-01 0.185D+00 0.874D+00
 Coeff:     -0.115D-03 0.240D-03 0.207D-03 0.146D-03-0.143D-02-0.618D-02
 Coeff:     -0.340D-01-0.179D-01 0.185D+00 0.874D+00
 Gap=     0.271 Goal=   None    Shift=    0.000
 RMSDP=4.00D-07 MaxDP=6.30D-05 DE=-3.64D-08 OVMax= 3.09D-05

 Cycle  11  Pass 1  IDiag  1:
 RMSU=  1.44D-07    CP:  7.11D-01  1.82D+00  7.98D-01  1.12D+00  1.22D+00
                    CP:  1.06D+00  1.25D+00  1.16D+00  1.31D+00  1.20D+00
 E= -1581.53085060275     Delta-E=       -0.000000005797 Rises=F Damp=F
 DIIS: error= 3.17D-07 at cycle  11 NSaved=  11.
 NSaved=11 IEnMin=11 EnMin= -1581.53085060275     IErMin=11 ErrMin= 3.17D-07
 ErrMax= 3.17D-07  0.00D+00 EMaxC= 1.00D-01 BMatC= 4.73D-10 BMatP= 2.40D-09
 IDIUse=1 WtCom= 1.00D+00 WtEn= 0.00D+00
 Coeff-Com:  0.727D-05-0.174D-04 0.246D-04 0.342D-03 0.116D-02-0.828D-03
 Coeff-Com: -0.192D-01-0.402D-01-0.245D-01 0.313D+00 0.770D+00
 Coeff:      0.727D-05-0.174D-04 0.246D-04 0.342D-03 0.116D-02-0.828D-03
 Coeff:     -0.192D-01-0.402D-01-0.245D-01 0.313D+00 0.770D+00
 Gap=     0.271 Goal=   None    Shift=    0.000
 RMSDP=1.25D-07 MaxDP=2.52D-05 DE=-5.80D-09 OVMax= 1.38D-05

 Cycle  12  Pass 1  IDiag  1:
 RMSU=  5.90D-08    CP:  7.11D-01  1.82D+00  7.98D-01  1.12D+00  1.22D+00
                    CP:  1.06D+00  1.25D+00  1.17D+00  1.37D+00  1.31D+00
                    CP:  1.26D+00
 E= -1581.53085060369     Delta-E=       -0.000000000947 Rises=F Damp=F
 DIIS: error= 1.75D-07 at cycle  12 NSaved=  12.
 NSaved=12 IEnMin=12 EnMin= -1581.53085060369     IErMin=12 ErrMin= 1.75D-07
 ErrMax= 1.75D-07  0.00D+00 EMaxC= 1.00D-01 BMatC= 7.32D-11 BMatP= 4.73D-10
 IDIUse=1 WtCom= 1.00D+00 WtEn= 0.00D+00
 Coeff-Com:  0.179D-04-0.381D-04-0.231D-04 0.782D-04 0.551D-03 0.765D-03
 Coeff-Com:  0.898D-03-0.748D-02-0.405D-01-0.694D-01 0.233D+00 0.883D+00
 Coeff:      0.179D-04-0.381D-04-0.231D-04 0.782D-04 0.551D-03 0.765D-03
 Coeff:      0.898D-03-0.748D-02-0.405D-01-0.694D-01 0.233D+00 0.883D+00
 Gap=     0.271 Goal=   None    Shift=    0.000
 RMSDP=5.19D-08 MaxDP=8.27D-06 DE=-9.47D-10 OVMax= 7.83D-06

 Cycle  13  Pass 1  IDiag  1:
 RMSU=  2.24D-08    CP:  7.11D-01  1.82D+00  7.98D-01  1.12D+00  1.22D+00
                    CP:  1.06D+00  1.25D+00  1.18D+00  1.39D+00  1.36D+00
                    CP:  1.46D+00  1.32D+00
 E= -1581.53085060393     Delta-E=       -0.000000000235 Rises=F Damp=F
 DIIS: error= 5.52D-08 at cycle  13 NSaved=  13.
[...]
 5,-0.00006422,-0.00000126,-0.00001416,-0.00007735,0.00011883,0.0000956
 2,-0.00005904,-0.00003970,-0.00000161,-0.00032326,-0.00005700,0.000070
 03,-0.00002219,0.00001825,-0.00004497,-0.00005955,-0.00004672,-0.00002
 077,-0.00001371,0.00000638,-0.00001093,0.00012072,0.00009168,0.0000726
 7,0.00064191,0.00000702,-0.00011307,0.00002260,-0.00000882,-0.00002828
 ,0.00010866,0.00052294,0.00003125,-0.00004113,0.00014872,-0.00002699,0
 .00051029,-0.00117764,-0.00030613,0.00020026,-0.00039093,-0.00031953,-
 0.00003790,0.00004596,0.00009464,0.00065295,0.00075663,0.00027272,0.00
 006702,0.00000502,0.00007909,-0.00002725,0.00003678,-0.00003729,-0.000
 02239,0.00001404,0.00001458,-0.00004654,-0.00039423,-0.00005770,-0.000
 00821,-0.00009608,0.00003766,0.00000042,0.00002764,-0.00002822,0.00001
 133,0.00001318,0.00000931,-0.00000361,-0.00000460,-0.00000252,0.000003
 10,0.00000298,-0.00008031,0.00015119,-0.00046193,0.00028964,-0.0000278
 8,0.00007191,-0.00002782,-0.00000223,0.00005230,0.00000676,0.00018292,
 0.00003171,-0.00022399,-0.00004553,-0.00003787,0.00001741,-0.00006291,
 -0.00001832,-0.00001596,0.00021125,0.00035203,0.00046367,-0.00022638,-
 0.00017778,-0.00017504,0.00100098,0.00091576,0.00004643,-0.00019041,-0
 .00031424,-0.00011228,-0.00003595,0.00004418,0.00006644,0.00002353,0.0
 0001684,0.00003968,-0.00002539,-0.00006910,0.00000024,0.00003039,-0.00
 000496,-0.00000226,-0.00002366,0.00000121,-0.00001413,-0.00016094,-0.0
 0002777,0.00005772,-0.00031345,0.00000283,0.00011935,-0.00763339,-0.00
 330367,0.00920911,-0.00965320,0.00617467,-0.01023658,0.00185756,0.0017
 5670,-0.00123740,0.00075436,-0.00201061,-0.00209615,0.00000577,0.00000
 504,-0.00001757,0.00000033,-0.00001615,0.00000890,0.00002726,-0.000029
 08,-0.00000166,-0.00000785,-0.00000090,0.00000847,0.00040255,-0.000346
 88,-0.00046074,-0.00043247,0.00031115,0.00043315,-0.00024071,0.0001514
 4,0.00015604,-0.08224014,-0.06449651,0.09633781,0.09285476,0.00003231,
 -0.00001942,-0.00000568,-0.00004459,0.00002549,0.00003526,-0.00000618,
 -0.00003933,0.00000616,0.00002217,0.00001224,-0.00001232,-0.00000734,0
 .00000144,0.00001142,0.00001907,0.00005755,-0.00000724,-0.00001223,0.0
 0001404,0.00001134,0.00000435,-0.00001654,-0.00000355,0.00000846,-0.00
 001660,-0.00000002,0.00000898,0.00006162,-0.00002754,-0.00001264,0.000
 06442,-0.00002230,0.00012314,0.00007174,-0.00002073,-0.00004585,-0.000
 00054,-0.00001137,-0.00010089,-0.00004071,0.00000166,0.00000751,-0.000
 03737,0.00002890,0.00002132,0.00000837,0.00001096,-0.00004283,0.000015
 30,-0.00004973,-0.00000874,0.00000389,-0.00013018,0.00005935,-0.000007
 78,0.00013525,0.00040072,-0.00002285,0.00041351,-0.00010671,0.00004125
 ,0.00030536,0.00000659,0.00002569,0.00004058,0.00006181,-0.00040146,0.
 00007019,-0.00013899,0.00006693,-0.00003923,0.00061517,-0.00019556,-0.
 00009662,0.00006564,0.00004713,0.00010213,-0.00328936,0.00057998,-0.00
 225770,-0.00005034,0.00001860,0.00009180,-0.00001804,0.00030865,0.0001
 2250,-0.00020989,-0.00004979,-0.00004763,-0.00018840,-0.00018798,-0.00
 014177,-0.00002789,0.00002175,-0.00007242,-0.00000474,-0.00018702,-0.0
 0005121,-0.00004607,0.00003274,-0.00001940,0.00017818,0.00017842,-0.00
 002415,0.00082747,-0.00008496,0.00040488,0.00002619,0.00000940,-0.0000
 0847,0.00013156,0.00019096,0.00004917,-0.00004412,0.00015393,-0.000024
 81,0.00020759,-0.00233578,0.00029605,-0.00028133,-0.00018506,-0.000471
 39,0.00001152,-0.00003098,0.00010300,0.00084567,0.00163003,0.00080183,
 -0.00004992,-0.00003391,-0.00002324,-0.00000580,0.00007622,-0.00006501
 ,-0.00006427,-0.00000037,0.00002056,-0.00014148,-0.00046727,-0.0000388
 1,0.00010661,-0.00018607,-0.00003903,-0.00001286,0.00001320,-0.0000060
 7,-0.00000508,-0.00000167,0.00001632,0.00001128,0.00004654,-0.00003351
 ,0.00007240,0.00001350,0.00001344,0.00013177,-0.00056612,0.00040700,-0
 .00004380,0.00006055,-0.00000041,0.00002335,0.00008779,-0.00002564,0.0
 0032456,0.00002190,-0.00016477,-0.00001750,-0.00007478,-0.00001501,-0.
 00006000,0.00001330,0.00008452,0.00016595,0.00034515,0.00024319,-0.000
 78233,-0.00030126,-0.00055213,0.00141904,-0.00058663,-0.00150638,-0.00
 029082,-0.00042364,-0.00022975,0.00007835,0.00021665,0.00028754,0.0000
 5396,-0.00022877,0.00020416,-0.00005996,-0.00001921,-0.00003229,0.0000
 6979,0.00004537,0.00009756,-0.00001300,-0.00006079,-0.00006222,-0.0002
 0605,0.00019079,-0.00001021,-0.00021917,0.00007270,0.00025337,-0.01917
 607,0.01648392,0.00060495,0.01110018,-0.01164985,-0.01400282,0.0074201
 8,-0.00030437,-0.00354966,0.00266803,-0.00943061,0.00340271,0.00002029
 ,0.00000987,-0.00000161,-0.00003976,-0.00002864,0.00000223,0.00000628,
 -0.00003997,0.00000518,-0.00000402,-0.00000851,0.00000615,0.00058155,-
 0.00101501,-0.00040139,-0.00090090,0.00117804,0.00061926,-0.00006649,0
 .00016267,0.00002886,-0.03123430,-0.13921449,0.14606987,0.03463222,0.1
 5970181,0.00003154,-0.00002968,-0.00001533,0.00000262,0.00002363,0.000
 10572,-0.00001085,0.00003733,0.00000648,0.00002156,0.00000808,0.000003
 94,-0.00001331,-0.00000568,-0.00002388,0.00001293,-0.00002495,-0.00003
 177,0.00002742,-0.00002432,-0.00005301,0.00001023,0.00002698,0.0000142
 7,0.00002089,-0.00000618,-0.00000198,-0.00002264,-0.00002626,0.0000503
 2,-0.00001910,-0.00004905,0.00003618,-0.00010929,-0.00007299,0.0000206
 8,0.00005464,-0.00001566,0.00000619,0.00008153,0.00004158,0.00000386,-
 0.00001097,0.00003028,-0.00002489,-0.00001590,-0.00001196,-0.00001830,
 0.00004448,-0.00001180,0.00004529,0.00021905,-0.00003498,0.00011153,0.
 00013093,-0.00004196,-0.00025130,-0.00015738,0.00011804,0.00027002,-0.
 00002098,-0.00008949,-0.00041241,0.00003092,-0.00001488,-0.00003428,0.
 00011332,0.00044324,-0.00097789,0.00032768,-0.00005062,-0.00003704,-0.
 00070699,0.00022198,0.00021934,-0.00006925,-0.00003170,-0.00008639,-0.
 00065800,-0.00110929,0.00261606,0.00006894,0.00001904,-0.00004401,0.00
 014126,-0.00039155,-0.00015642,0.00020716,-0.00000233,-0.00000107,0.00
 018837,0.00035773,0.00018956,-0.00000695,-0.00000252,0.00005483,0.0000
 8102,0.00009842,-0.00000084,0.00004891,-0.00004518,0.00002402,-0.00015
 126,-0.00017441,-0.00007840,-0.00124713,0.00034468,-0.00047559,-0.0000
 3419,-0.00005806,0.00002763,0.00023776,-0.00124971,-0.00012608,0.00010
 003,-0.00059506,0.00007039,-0.00089898,0.00351771,0.00103366,-0.000105
 64,-0.00007741,0.00047846,0.00011493,0.00021307,0.00007788,-0.00098087
 ,-0.00175451,-0.00223136,0.00005552,-0.00000218,0.00004613,0.00000723,
 -0.00007106,0.00003517,0.00006124,-0.00017309,-0.00004184,0.00022503,0
 .00096065,0.00028638,-0.00005661,0.00022595,-0.00002707,0.00000814,-0.
 00001470,0.00001759,0.00000175,-0.00003603,-0.00002693,-0.00000881,-0.
 00001565,0.00003477,-0.00004221,0.00007562,0.00018176,-0.00025423,0.00
 098170,-0.00068637,0.00005778,-0.00010849,-0.00001306,-0.00002711,-0.0
 0015434,0.00000206,-0.00022164,-0.00001433,0.00012156,0.00002424,0.000
 11949,0.00001622,0.00009651,-0.00000647,-0.00004596,-0.00017934,-0.000
 48817,-0.00049006,0.00007290,0.00024552,0.00032303,-0.00076755,-0.0016
 7352,0.00051660,0.00038317,0.00033727,0.00038630,0.00007020,0.00012781
 ,0.00005584,-0.00019226,0.00008752,-0.00018761,0.00006531,0.00002230,0
 .00003176,-0.00004110,-0.00003314,-0.00005736,0.00001769,0.00008482,0.
 00006281,0.00014846,0.00001915,-0.00026680,0.00045583,-0.00000011,-0.0
 0038312,0.02448967,-0.01338589,-0.00800336,-0.01249577,-0.00758302,0.0
 1101073,-0.00879417,-0.00010894,0.00643962,-0.00542524,0.00918503,-0.0
 0292511,-0.00000909,-0.00001312,-0.00002760,0.00004491,0.00002149,-0.0
 0000650,0.00003008,0.00001126,-0.00000462,-0.00001743,0.00000620,-0.00
 002010,-0.00117609,0.00121170,0.00072538,0.00140065,-0.00140972,-0.000
 90395,0.00036076,-0.00023012,-0.00011362,0.05883395,0.15663903,-0.2215
 4595,-0.05807331,-0.15102626,0.22079122,-0.00000627,0.00000859,-0.0000
 0377,-0.00000306,0.00000123,-0.00001722,0.00000105,-0.00000737,0.00000
 136,-0.00000004,-0.00000286,-0.00000112,-0.00000027,-0.00000157,0.0000
 0291,-0.00000564,0.00000123,0.00000146,0.00000245,0.00000303,0.0000028
 3,0.00000227,0.00000004,0.00000071,-0.00000014,-0.00000145,-0.00000035
 ,0.00000050,0.00000220,-0.00000071,-0.00000032,0.00000223,-0.00000227,
 0.00000536,0.00000321,-0.00000110,-0.00000150,-0.00000046,-0.00000036,
 -0.00000447,-0.00000163,-0.00000052,-0.00000021,-0.00000294,0.00000122
 ,0.00000093,0.00000082,0.00000042,-0.00000129,0.00000090,-0.00000154,-
 0.00001540,0.00001149,0.00002664,0.00000562,-0.00000711,-0.00001800,-0
 .00001423,-0.00004357,-0.00002118,0.00001539,-0.00000864,-0.00006589,0
 .00000049,0.00000241,-0.00000091,0.00030918,-0.00011070,-0.00016402,0.
 00002858,0.00003334,0.00001845,-0.00020529,-0.00005813,-0.00008714,-0.
 00001786,0.00000519,-0.00001588,-0.00038119,0.00028594,0.00031507,0.00
 000116,-0.00000225,0.00000507,-0.00000118,0.00000584,0.00000362,-0.000
 00453,-0.00000439,-0.00000051,-0.00001065,0.00000340,-0.00000010,-0.00
 000086,0.00000091,-0.00000358,-0.00000472,-0.00000607,0.00000058,-0.00
 000056,0.00000150,-0.00000174,-0.00000057,-0.00000046,0.00000443,0.000
 01162,0.00000161,0.00000304,0.00000199,-0.00000136,-0.00000304,0.00003
 179,0.00002709,-0.00003162,0.00000125,-0.00000145,-0.00000006,0.000020
 43,0.00001669,-0.00001662,-0.00011005,0.00011083,-0.00000293,0.0000327
 6,-0.00001758,0.00001790,0.00006131,0.00004017,-0.00001367,0.00003221,
 0.00001200,0.00002699,-0.00000552,-0.00000042,-0.00000403,0.00000070,-
 0.00000409,0.00000044,0.00001634,-0.00005904,-0.00000171,-0.00001260,-
 0.00001020,0.00000461,-0.00000126,0.00000563,-0.00000499,0.00000472,0.
 00000097,0.00000067,-0.00000030,-0.00000414,0.00000395,-0.00002575,0.0
 0002367,-0.00000605,0.00006058,-0.00005342,0.00001240,-0.00000594,0.00
 001318,-0.00000567,0.00000136,-0.00000620,0.00000544,0.00014689,-0.000
 04286,-0.00006330,0.00000473,-0.00000803,-0.00000064,-0.00004417,-0.00
 001074,0.00001984,0.00008305,0.00011779,0.00014367,-0.00019224,-0.0001
 8146,-0.00014002,0.00086474,0.00031481,-0.00019548,-0.00026973,-0.0001
 7648,-0.00020014,0.00003809,0.00010168,0.00009077,-0.00002037,-0.00007
 756,0.00006401,-0.00002469,0.00000667,-0.00001782,0.00002122,0.0000150
 2,0.00003634,0.00000685,-0.00000717,-0.00001628,-0.00002088,0.00000756
 ,0.00000130,-0.00005784,0.00010430,0.00019124,0.00187926,-0.00219525,0
 .00025166,-0.00191489,-0.00046261,0.00175575,-0.00029183,0.00065362,-0
 .00009175,-0.00169646,0.00092884,-0.00139323,0.00000064,0.00000050,-0.
 00000023,-0.00000116,-0.00000080,0.00000013,-0.00000136,-0.00000078,-0
 .00000053,0.00000080,-0.00000034,0.00000129,-0.00000613,-0.00003212,-0
 .00011563,-0.00002049,-0.00000779,0.00006864,-0.00002409,0.00003514,0.
 00008094,-0.39590877,0.23235288,-0.09705308,0.00557740,-0.00448979,0.0
 0379251,0.39206302,-0.00001149,0.00001434,-0.00000538,0.00000093,0.000
 00556,-0.00002273,0.00000403,-0.00000654,0.00000515,-0.00000480,-0.000
 00454,0.00000101,-0.00000016,-0.00000056,-0.00000195,-0.00000735,-0.00
 000284,0.00000399,0.00000343,0.00000227,-0.00000068,0.00000821,-0.0000
 0382,0.00000280,-0.00000053,-0.00000092,-0.00000010,-0.00000088,0.0000
 0266,-0.00000435,-0.00000240,0.00000501,-0.00000393,0.00001338,0.00000
 464,-0.00000265,-0.00000411,0.00000078,-0.00000099,-0.00001137,-0.0000
 0347,0.00000188,0.00000166,-0.00000358,0.00000301,0.00000308,0.0000002
 0,0.00000146,-0.00000658,0.00000173,-0.00000649,-0.00002982,0.00000481
 ,0.00006470,-0.00000494,-0.00001087,-0.00004776,-0.00002950,-0.0000753
 3,-0.00014805,0.00001267,-0.00004358,-0.00010496,-0.00000174,0.0000059
 8,-0.00000694,-0.00052470,-0.00009312,-0.00076255,0.00003265,0.0000282
 0,0.00004293,-0.00025756,-0.00007702,-0.00003581,-0.00003167,0.0000051
 3,-0.00004417,0.00075834,0.00016831,0.00116463,0.00000471,-0.00000208,
 0.00000604,-0.00001291,0.00001705,0.00000645,-0.00001391,-0.00000774,-
 0.00000486,-0.00002967,0.00000306,-0.00000307,-0.00000354,-0.00000356,
 -0.00000136,-0.00000825,-0.00001112,-0.00000824,-0.00000487,0.00000354
 ,0.00000013,0.00001787,0.00002510,-0.00001321,0.00006013,-0.00001096,0
 .00001623,0.00000398,-0.00000635,-0.00000043,0.00002366,0.00002237,0.0
 0002568,0.00000587,-0.00002534,-0.00000128,0.00007691,-0.00008648,0.00
 003145,-0.00022957,0.00026527,0.00003937,0.00004823,-0.00005861,0.0000
 0275,0.00010203,0.00013645,0.00010018,0.00003390,-0.00001258,0.0000327
 9,-0.00000916,0.00001623,-0.00002142,-0.00000247,-0.00004008,0.0000018
 2,-0.00000486,-0.00002414,0.00004983,-0.00000370,-0.00002663,0.0000039
 3,-0.00000453,0.00000618,-0.00000364,0.00000249,-0.00000483,0.00000063
 ,0.00000333,0.00000095,-0.00000064,-0.00000097,0.00002280,0.00001836,0
 .00001597,-0.00003403,0.00003427,-0.00000801,0.00000588,-0.00000676,0.
 00000327,0.00000534,-0.00000162,0.00014848,-0.00003985,-0.00005581,0.0
 0000797,-0.00003343,-0.00002977,-0.00003105,-0.00001217,0.00004412,0.0
 0006864,0.00014212,0.00011550,-0.00026232,-0.00039445,-0.00036725,0.00
 043678,0.00046817,-0.00087464,-0.00023770,-0.00003903,-0.00012973,0.00
 001396,-0.00006245,-0.00005335,-0.00003173,-0.00014169,0.00010546,-0.0
 0003409,0.00002732,-0.00002659,0.00002781,0.00003060,0.00006250,0.0000
 1421,-0.00002267,-0.00003258,-0.00003326,0.00000946,-0.00003515,0.0001
 1645,0.00006171,0.00025779,-0.00063629,-0.00067535,0.00162002,-0.00135
 517,0.00022680,-0.00034452,0.00015504,0.00014462,-0.00017186,0.0001149
 6,-0.00109543,-0.00146329,0.00000296,0.00000007,0.00000301,-0.00000755
 ,-0.00000143,-0.00000156,-0.00000697,0.00000184,0.00000118,0.00000103,
 -0.00000109,-0.00000251,0.00005617,-0.00015973,-0.00011342,-0.00010525
 ,0.00011080,0.00011047,-0.00002499,0.00008577,0.00003703,0.19982445,-0
 .14560886,0.07252251,0.02895561,-0.01387985,0.00668624,-0.22715283,0.1
 6075908,0.00001519,-0.00001329,-0.00000683,-0.00002161,0.00000956,0.00
 001707,-0.00000840,0.00000178,0.00000634,0.00001749,0.00000317,-0.0000
 0196,-0.00000678,0.00000036,-0.00000470,0.00000319,0.00000307,-0.00001
 064,0.00000315,-0.00000586,-0.00000991,-0.00000698,0.00000705,0.000000
 90,0.00000893,-0.00000699,-0.00000149,-0.00000240,0.00000400,0.0000094
 4,-0.00000500,-0.00000162,0.00000646,-0.00001520,-0.00000345,0.0000039
 4,0.00000801,-0.00000552,-0.00000220,0.00000772,0.00000668,0.00000100,
 -0.00000361,0.00000112,-0.00000290,-0.00000092,-0.00000210,-0.00000413
 ,0.00000849,-0.00000041,0.00000671,-0.00005670,0.00003275,0.00007140,0
 .00004359,-0.00001842,-0.00005382,-0.00005254,-0.00003948,-0.00014575,
 0.00001124,-0.00002259,-0.00012039,0.00001141,-0.00000075,0.00000387,-
 0.00024065,-0.00014107,-0.00023633,-0.00002602,-0.00002355,0.00001324,
 -0.00021117,-0.00001891,0.00001601,-0.00003211,0.00000535,-0.00003661,
 0.00050603,0.00033591,0.00033973,-0.00000823,0.00000228,-0.00000778,0.
 00001764,-0.00003241,-0.00001082,0.00002060,-0.00000079,-0.00000056,0.
 00001410,0.00001903,0.00000010,-0.00000840,0.00000458,0.00000125,0.000
 00235,0.00001837,0.00000415,0.00000820,-0.00000800,0.00000273,-0.00000
 196,-0.00001457,-0.00000686,-0.00009604,0.00002252,-0.00001535,-0.0000
 0561,-0.00001012,0.00000168,0.00000428,-0.00007659,0.00002316,0.000012
 35,-0.00004999,0.00000115,-0.00005758,0.00028261,0.00004808,-0.0002953
 9,0.00023384,0.00003323,0.00005436,-0.00002970,0.00001898,-0.00008282,
 0.00001364,-0.00008371,0.00001160,-0.00004965,-0.00000599,0.00000068,-
 0.00000297,0.00000680,0.00001880,-0.00004425,-0.00001019,0.00000243,0.
 00021261,0.00009099,-0.00000157,0.00003991,-0.00000363,0.00000259,-0.0
 0000160,0.00000292,0.00000062,-0.00000827,-0.00000781,-0.00000043,0.00
 000186,0.00000353,0.00004314,-0.00003700,0.00005186,-0.00012147,0.0001
 9213,-0.00007094,0.00001190,-0.00002677,-0.00000338,-0.00000822,-0.000
 00333,-0.00000415,0.00012406,-0.00002057,0.00003548,0.00002449,0.00000
 882,-0.00002458,0.00001580,0.00000743,0.00006556,-0.00005164,-0.000109
 07,-0.00025456,-0.00044540,-0.00038368,-0.00016521,-0.00001398,-0.0008
 7604,-0.00182140,-0.00006577,-0.00006078,-0.00001434,0.00004280,0.0001
 3334,0.00015677,-0.00005994,-0.00022896,0.00011184,-0.00001019,0.00002
 439,-0.00001687,0.00003958,0.00004387,0.00007538,0.00000203,-0.0000203
 1,-0.00001912,0.00000914,-0.00003907,-0.00003564,0.00025183,0.00028412
 ,0.00022490,-0.00204681,0.00520394,-0.00180711,0.00336001,-0.00102486,
 -0.00149970,0.00007038,-0.00177265,0.00076676,-0.00040633,-0.00266231,
 0.00299260,0.00000024,-0.00000245,-0.00001008,0.00000911,0.00000074,0.
 00000217,0.00001496,-0.00000448,-0.00000153,-0.00000560,0.00000109,-0.
 00000252,-0.00032274,-0.00000376,0.00022546,0.00020043,0.00000640,-0.0
 0018005,0.00023788,-0.00004523,-0.00008451,-0.06067588,0.05912228,-0.0
 4448301,-0.03261893,0.01992285,-0.00569201,0.09282816,-0.07825923,0.05
 153739\\0.00000002,-0.00000006,-0.00000085,-0.00000081,-0.00000003,0.0
 0000079,-0.00000013,0.00000003,-0.00000024,0.00000015,0.00000008,-0.00
 000037,-0.00000042,-0.00000014,0.,0.00000007,0.00000024,-0.00000001,0.
 00000011,-0.00000030,-0.00000016,0.00000007,-0.00000045,-0.00000103,0.
 00000013,-0.00000011,-0.00000003,-0.00000001,-0.00000013,-0.00000030,-
 0.00000053,-0.00000062,0.00000042,0.00000027,0.00000044,-0.00000078,0.
 00000007,0.00000011,-0.00000039,-0.00000004,0.00000003,-0.00000014,0.0
 0000019,-0.00000002,-0.00000026,0.00000019,-0.00000003,-0.00000023,0.0
 0000017,-0.00000005,-0.00000023,-0.00000008,0.00000043,-0.00000044,0.0
 0000049,0.00000100,0.00000023,0.00000086,0.00000141,0.00000208,-0.0000
 0094,0.00000230,0.00000081,0.00000001,0.00000038,-0.00000028,0.0000022
 8,-0.00000174,0.00000429,-0.00000021,-0.00000032,-0.00000042,0.0000025
 6,0.00000205,0.00000262,0.00000014,0.00000013,0.00000050,0.00000303,0.
 00000318,-0.00000155,-0.00000018,-0.00000057,-0.00000010,0.00000049,0.
 00000080,0.00000022,0.00000005,0.00000032,-0.00000061,0.,-0.00000060,-
 0.00000006,0.00000012,-0.00000157,-0.00000084,-0.00000024,-0.00000007,
 -0.00000046,-0.00000014,-0.00000008,-0.00000015,-0.00000083,-0.0000007
 1,0.00000021,0.00000188,-0.00000183,0.00000045,-0.00000052,-0.00000028
 ,0.00000045,-0.00000106,0.00000010,0.00000032,-0.00000011,-0.00000016,
 0.00000049,0.00000036,-0.00000199,0.00000157,0.00000481,0.00000427,0.0
 0000188,0.00000018,0.00000092,0.00000121,0.00000159,-0.00000165,-0.000
 00054,-0.00000153,-0.00000266,-0.00000275,0.00000033,-0.00000016,0.000
 00024,0.00000025,-0.00000120,0.00000028,-0.00000193,0.00000118,0.00000
 071,0.00000127,0.00000053,-0.00000042,0.00000110,-0.00000007,0.0000000
 6,-0.00000003,0.00000031,0.00000008,0.00000017,-0.00000007,-0.00000009
 ,-0.00000064,0.00000023,-0.00000060,0.00000375,-0.00000017,0.00000084,
 0.00000008,0.00000037,-0.00000017,0.00000086,-0.00000038,0.00000047,-0
 .00000119,0.00000142,0.00000403,-0.00000111,-0.00000138,0.00000022,0.0
 0000185,0.00000135,0.00000134,-0.00000291,0.00000616,0.00000084,-0.000
 00191,0.00000155,0.00000180,0.00000167,-0.00000071,-0.00000191,-0.0000
 0021,-0.00000110,0.00000094,-0.00000004,-0.00000003,0.00000122,-0.0000
 0104,-0.00000035,-0.00000030,0.00000041,-0.00000064,-0.00000043,0.0000
 0020,-0.00000017,0.00000010,0.00000009,0.00000015,0.00000041,0.0000002
 4,-0.00000083,-0.00000032,0.00000153,-0.00000067,0.00000268,-0.0000047
 0,0.00000346,-0.00000313,-0.00000706,0.00000209,-0.00001205,0.00000092
 ,-0.00000235,0.00000811,0.00000568,-0.00000842,-0.00000523,-0.00000003
 ,-0.00000050,-0.00000057,0.00000006,-0.00000034,-0.00000042,0.00000003
 ,-0.00000008,-0.00000040,0.00000074,0.,-0.00000053,0.00000483,-0.00000
 235,0.00000954,-0.00001133,0.00000367,-0.00000759,0.00000298,0.0000008
 0,-0.00000100,-0.00001230,-0.00000152,-0.00000828,0.00000436,-0.000002
 46,0.00000770,0.00000053,0.00000061,-0.00000350\\\@


 ERWIN WITH HIS PSI CAN DO
 CALCULATIONS QUITE A FEW.
 BUT ONE THING HAS NOT BEEN SEEN
 JUST WHAT DOES PSI REALLY MEAN.
 -- WALTER HUCKEL, TRANS. BY FELIX BLOCH
 Job cpu time:      12 days 20 hours 19 minutes 23.1 seconds.
 Elapsed time:       0 days 15 hours 37 minutes 12.5 seconds.
 File lengths (MBytes):  RWF=  25618 Int=      0 D2E=      0 Chk=    151 Scr=      1
 Normal termination of Gaussian 16 at Sat Mar  9 07:15:49 2024.
