 Entering Gaussian System, Link 0=g16
 Input=4water-ofreq.gjf
 Output=4water-ofreq.log
 Initial command:
 /packages/apps/gaussian/g16/g16/l1.exe "/scratch/mdturne9/2-6-methyl/oFreq/Gau-1314845.inp" -scrdir="/scratch/mdturne9/2-6-methyl/oFreq/"
 Entering Link 1 = /packages/apps/gaussian/g16/g16/l1.exe PID=   1314846.
  
 Copyright (c) 1988,1990,1992,1993,1995,1998,2003,2009,2016,
            Gaussian, Inc.  All Rights Reserved.
  
 This is part of the Gaussian(R) 16 program.  It is based on
 the Gaussian(R) 09 system (copyright 2009, Gaussian, Inc.),
 the Gaussian(R) 03 system (copyright 2003, Gaussian, Inc.),
 the Gaussian(R) 98 system (copyright 1998, Gaussian, Inc.),
 the Gaussian(R) 94 system (copyright 1995, Gaussian, Inc.),
 the Gaussian 92(TM) system (copyright 1992, Gaussian, Inc.),
 the Gaussian 90(TM) system (copyright 1990, Gaussian, Inc.),
 the Gaussian 88(TM) system (copyright 1988, Gaussian, Inc.),
 the Gaussian 86(TM) system (copyright 1986, Carnegie Mellon
 University), and the Gaussian 82(TM) system (copyright 1983,
 Carnegie Mellon University). Gaussian is a federally registered
 trademark of Gaussian, Inc.
  
 This software contains proprietary and confidential information,
 including trade secrets, belonging to Gaussian, Inc.
  
 This software is provided under written license and may be
 used, copied, transmitted, or stored only in accord with that
 written license.
  
 The following legend is applicable only to US Government
 contracts under FAR:
  
                    RESTRICTED RIGHTS LEGEND
  
 Use, reproduction and disclosure by the US Government is
 subject to restrictions as set forth in subparagraphs (a)
 and (c) of the Commercial Computer Software - Restricted
 Rights clause in FAR 52.227-19.
  
 Gaussian, Inc.
 340 Quinnipiac St., Bldg. 40, Wallingford CT 06492
  
  
 ---------------------------------------------------------------
 Warning -- This program may not be used in any manner that
 competes with the business of Gaussian, Inc. or will provide
 assistance to any competitor of Gaussian, Inc.  The licensee
 of this program is prohibited from giving any competitor of
 Gaussian, Inc. access to this program.  By using this program,
 the user acknowledges that Gaussian, Inc. is engaged in the
 business of creating and licensing software in the field of
 computational chemistry and represents and warrants to the
 licensee that it is not a competitor of Gaussian, Inc. and that
 it will not use this program in any manner prohibited above.
 ---------------------------------------------------------------
  

 Cite this work as:
 Gaussian 16, Revision A.03,
 M. J. Frisch, G. W. Trucks, H. B. Schlegel, G. E. Scuseria, 
 M. A. Robb, J. R. Cheeseman, G. Scalmani, V. Barone, 
 G. A. Petersson, H. Nakatsuji, X. Li, M. Caricato, A. V. Marenich, 
 J. Bloino, B. G. Janesko, R. Gomperts, B. Mennucci, H. P. Hratchian, 
 J. V. Ortiz, A. F. Izmaylov, J. L. Sonnenberg, D. Williams-Young, 
 F. Ding, F. Lipparini, F. Egidi, J. Goings, B. Peng, A. Petrone, 
 T. Henderson, D. Ranasinghe, V. G. Zakrzewski, J. Gao, N. Rega, 
 G. Zheng, W. Liang, M. Hada, M. Ehara, K. Toyota, R. Fukuda, 
 J. Hasegawa, M. Ishida, T. Nakajima, Y. Honda, O. Kitao, H. Nakai, 
 T. Vreven, K. Throssell, J. A. Montgomery, Jr., J. E. Peralta, 
 F. Ogliaro, M. J. Bearpark, J. J. Heyd, E. N. Brothers, K. N. Kudin, 
 V. N. Staroverov, T. A. Keith, R. Kobayashi, J. Normand, 
 K. Raghavachari, A. P. Rendell, J. C. Burant, S. S. Iyengar, 
 J. Tomasi, M. Cossi, J. M. Millam, M. Klene, C. Adamo, R. Cammi, 
 J. W. Ochterski, R. L. Martin, K. Morokuma, O. Farkas, 
 J. B. Foresman, and D. J. Fox, Gaussian, Inc., Wallingford CT, 2016.
 
 ******************************************
 Gaussian 16:  ES64L-G16RevA.03 25-Dec-2016
                18-Mar-2024 
 ******************************************
 %nprocshared=20
 Will use up to   20 processors via shared memory.
 %mem=15GB
 %chk=4water-ofreq.chk
 ---------------------------------
 #p opt freq wb97xd/6-311+g(2d,2p)
 ---------------------------------
 1/18=20,19=15,26=3,38=1/1,3;
 2/9=110,12=2,17=6,18=5,40=1/2;
 3/5=4,6=6,7=212,11=2,25=1,30=1,71=1,74=-58/1,2,3;
 4//1;
 5/5=2,38=5/2;
 6/7=2,8=2,9=2,10=2,28=1/1;
 7//1,2,3,16;
 1/18=20,19=15,26=3/3(2);
 2/9=110/2;
 99//99;
 2/9=110/2;
 3/5=4,6=6,7=212,11=2,25=1,30=1,71=1,74=-58/1,2,3;
 4/5=5,16=3,69=1/1;
 5/5=2,38=5/2;
 7//1,2,3,16;
 1/18=20,19=15,26=3/3(-5);
 2/9=110/2;
 6/7=2,8=2,9=2,10=2,19=2,28=1/1;
 99/9=1/99;
 Leave Link    1 at Mon Mar 18 19:19:10 2024, MaxMem=  2013265920 cpu:               5.6 elap:               0.9
 (Enter /packages/apps/gaussian/g16/g16/l101.exe)
 --------
 Required
 --------
 Symbolic Z-matrix:
 Charge =  0 Multiplicity = 1
 C                    0    -5.97276  -2.31497   0.76099  H 
 C                    0    -4.85094  -1.28932   0.92959  H 
 H                    0    -5.76677  -3.22292   1.32802  H 
 H                    0    -6.91978  -1.90153   1.10963  H 
 H                    0    -6.10468  -2.59453  -0.28558  H 
 C                    0    -5.12198  -0.03199   0.08264  H 
 H                    0    -4.83204  -0.98411   1.97972  H 
 C                    0    -4.20418   1.14585   0.40048  H 
 H                    0    -4.45244   1.54286   1.39011  H 
 H                    0    -3.17177   0.79949   0.46346  H 
 C                    0    -4.29556   2.25839  -0.63856  H 
 C                    0    -3.50377   3.5279   -0.30103  H 
 H                    0    -3.94354   3.95556   0.60529  H 
 C                    0    -3.64875   4.56095  -1.42499  H 
 H                    0    -3.14391   5.49317  -1.17057  H 
 H                    0    -3.2074    4.18182  -2.34861  H 
 H                    0    -4.7003    4.78107  -1.61622  H 
 C                    0    -3.48383  -1.85471   0.60136  H 
 C                    0    -3.25025  -2.53749  -0.59099  H 
 C                    0    -2.39853  -1.61171   1.43816  H 
 C                    0    -1.97157  -2.93662  -0.94555  H 
 H                    0    -4.06711  -2.72582  -1.27541  H 
 C                    0    -1.11623  -1.99674   1.08318  H 
 H                    0    -2.5519   -1.06815   2.362    H 
 C                    0    -0.88656  -2.66602  -0.1164   H 
 H                    0    -1.80681  -3.40357  -1.90863  H 
 H                    0    -0.27574  -1.72956   1.7105   H 
 C                    0    -2.03469   3.28992  -0.00711  H 
 C                    0    -1.28616   2.33782  -0.69553  H 
 C                    0    -1.38613   4.05762   0.9566   H 
 C                    0     0.05191   2.13606  -0.40895  H 
 H                    0    -1.74311   1.71536  -1.45382  H 
 C                    0    -0.03609   3.88225   1.22419  H 
 H                    0    -1.94827   4.79697   1.51448  H 
 C                    0     0.69905   2.91688   0.54464  H 
 H                    0     0.59117   1.34699  -0.9139   H 
 H                    0     0.43835   4.4821    1.99248  H 
 C                    0     2.13436   2.64322   0.88147  H 
 H                    0     2.39288   3.03341   1.86444  H 
 H                    0     2.31926   1.57115   0.88173  H 
 C                    0     0.52696  -2.91536  -0.54781  H 
 H                    0     0.63337  -2.83484  -1.62718  H 
 H                    0     1.15789  -2.15315  -0.09134  H 
 C                    0     4.51045   2.78806   0.33585  H 
 H                    0     5.24981   3.34414  -0.23642  H 
 H                    0     4.64078   2.95238   1.40196  H 
 H                    0     4.56754   1.71948   0.12302  H 
 C                    0     3.08812   4.74581   0.03594  H 
 H                    0     2.08339   5.07607  -0.21301  H 
 H                    0     3.33404   5.03774   1.05408  H 
 H                    0     3.80596   5.17873  -0.65604  H 
 C                    0     2.91782   2.86303  -1.48996  H 
 H                    0     2.8865    1.77388  -1.56515  H 
 H                    0     1.9777    3.28821  -1.82707  H 
 H                    0     3.73968   3.25892  -2.08207  H 
 C                    0     2.60194  -4.14967  -0.33893  H 
 H                    0     3.03849  -5.1379   -0.20778  H 
 H                    0     2.83091  -3.74538  -1.32565  H 
 H                    0     2.9714   -3.46767   0.42404  H 
 C                    0     0.82846  -4.61212   1.25383  H 
 H                    0     1.23065  -3.8267    1.89222  H 
 H                    0    -0.24503  -4.71363   1.38156  H 
 H                    0     1.32417  -5.55541   1.47333  H 
 C                    0     0.58484  -5.3191   -1.05848  H 
 H                    0    -0.49767  -5.3462   -0.96288  H 
 H                    0     0.86524  -5.08504  -2.08205  H 
 H                    0     1.007    -6.2781   -0.76753  H 
 N                    0     3.152     3.26761  -0.06912  H 
 N                    0     1.11927  -4.26311  -0.16526  H 
 C                    0     2.74305  -0.36318  -0.30113  H 
 O                    0     1.86113  -0.49342   0.63673  H 
 O                    0     2.34475  -0.28159  -1.52632  H 
 O                    0     3.98223  -0.27534  -0.01745  H 
 H                    0    -3.96986   1.8698   -1.60843  L    H        11    0.        0.        0.        0. 
 H                    0    -5.34218   2.54735  -0.77305  L    H        11    0.        0.        0.        0. 
 H                    0    -6.16376   0.27004   0.22382  L    H        6     0.        0.        0.        0. 
 H                    0    -5.02075  -0.29942  -0.97423  L    H        6     0.        0.        0.        0. 
 O                    0     3.88691  -2.24636  -2.58593  L 
 H                    0     3.30275  -1.4904   -2.35612  L 
 H                    0     4.66066  -2.05223  -2.05436  L 
 O                    0     2.47632  -2.21911   2.49722  L 
 H                    0     2.29325  -1.5104    1.81943  L 
 H                    0     3.35505  -2.01294   2.8193   L 
 O                    0    -0.18866  -0.48122  -2.41578  L 
 H                    0     0.73741  -0.42192  -2.07612  L 
 H                    0    -0.72139  -0.58916  -1.62791  L 
 O                    0     4.18573   0.41944   2.58627  L 
 H                    0     4.15805   0.09336   1.65207  L 
 H                    0     3.28259   0.30133   2.88187  L 
 
 Warning:  atom H74 in layer R is uses the same element as its link atom.
 Warning:  atom H75 in layer R is uses the same element as its link atom.
 Warning:  atom H76 in layer R is uses the same element as its link atom.
 Warning:  atom H77 in layer R is uses the same element as its link atom.
 Add virtual bond connecting atoms H82        and O71        Dist= 3.06D+00.
 Add virtual bond connecting atoms H85        and O72        Dist= 3.22D+00.
 Add virtual bond connecting atoms H88        and O73        Dist= 3.25D+00.
 Add virtual bond connecting atoms H79        and O72        Dist= 3.31D+00.
 Add virtual bond connecting atoms O71        and H43        Dist= 3.67D+00.
 Add virtual bond connecting atoms O73        and H47        Dist= 3.94D+00.
 ITRead=  0  0  0  0  0  0  0  0  0  0  0  0  0  0  0  0  0  0  0  0
 ITRead=  0  0  0  0  0  0  0  0  0  0  0  0  0  0  0  0  0  0  0  0
 ITRead=  0  0  0  0  0  0  0  0  0  0  0  0  0  0  0  0  0  0  0  0
 ITRead=  0  0  0  0  0  0  0  0  0  0  0  0  0  0  0  0  0  0  0  0
 ITRead=  0  0  0  0  0  0  0  0  0
 MicOpt= -1 -1 -1 -1 -1 -1 -1 -1 -1 -1 -1 -1 -1 -1 -1 -1 -1 -1 -1 -1
 MicOpt= -1 -1 -1 -1 -1 -1 -1 -1 -1 -1 -1 -1 -1 -1 -1 -1 -1 -1 -1 -1
 MicOpt= -1 -1 -1 -1 -1 -1 -1 -1 -1 -1 -1 -1 -1 -1 -1 -1 -1 -1 -1 -1
 MicOpt= -1 -1 -1 -1 -1 -1 -1 -1 -1 -1 -1 -1 -1 -1 -1 -1 -1 -1 -1 -1
 MicOpt= -1 -1 -1 -1 -1 -1 -1 -1 -1
 NAtoms=     89 NQM=       89 NQMF=       0 NMMI=      0 NMMIF=      0
                NMic=       0 NMicF=      0.
                    Isotopes and Nuclear Properties:
 (Nuclear quadrupole moments (NQMom) in fm**2, nuclear magnetic moments (NMagM)
  in nuclear magnetons)

  Atom         1           2           3           4           5           6           7           8           9          10
 IAtWgt=          12          12           1           1           1          12           1          12           1           1
 AtmWgt=  12.0000000  12.0000000   1.0078250   1.0078250   1.0078250  12.0000000   1.0078250  12.0000000   1.0078250   1.0078250
 NucSpn=           0           0           1           1           1           0           1           0           1           1
 AtZEff=  -0.0000000  -0.0000000  -0.0000000  -0.0000000  -0.0000000  -0.0000000  -0.0000000  -0.0000000  -0.0000000  -0.0000000
 NQMom=    0.0000000   0.0000000   0.0000000   0.0000000   0.0000000   0.0000000   0.0000000   0.0000000   0.0000000   0.0000000
 NMagM=    0.0000000   0.0000000   2.7928460   2.7928460   2.7928460   0.0000000   2.7928460   0.0000000   2.7928460   2.7928460
 AtZNuc=   6.0000000   6.0000000   1.0000000   1.0000000   1.0000000   6.0000000   1.0000000   6.0000000   1.0000000   1.0000000

  Atom        11          12          13          14          15          16          17          18          19          20
 IAtWgt=          12          12           1          12           1           1           1          12          12          12
 AtmWgt=  12.0000000  12.0000000   1.0078250  12.0000000   1.0078250   1.0078250   1.0078250  12.0000000  12.0000000  12.0000000
 NucSpn=           0           0           1           0           1           1           1           0           0           0
 AtZEff=  -0.0000000  -0.0000000  -0.0000000  -0.0000000  -0.0000000  -0.0000000  -0.0000000  -0.0000000  -0.0000000  -0.0000000
 NQMom=    0.0000000   0.0000000   0.0000000   0.0000000   0.0000000   0.0000000   0.0000000   0.0000000   0.0000000   0.0000000
 NMagM=    0.0000000   0.0000000   2.7928460   0.0000000   2.7928460   2.7928460   2.7928460   0.0000000   0.0000000   0.0000000
 AtZNuc=   6.0000000   6.0000000   1.0000000   6.0000000   1.0000000   1.0000000   1.0000000   6.0000000   6.0000000   6.0000000

  Atom        21          22          23          24          25          26          27          28          29          30
 IAtWgt=          12           1          12           1          12           1           1          12          12          12
 AtmWgt=  12.0000000   1.0078250  12.0000000   1.0078250  12.0000000   1.0078250   1.0078250  12.0000000  12.0000000  12.0000000
 NucSpn=           0           1           0           1           0           1           1           0           0           0
 AtZEff=  -0.0000000  -0.0000000  -0.0000000  -0.0000000  -0.0000000  -0.0000000  -0.0000000  -0.0000000  -0.0000000  -0.0000000
 NQMom=    0.0000000   0.0000000   0.0000000   0.0000000   0.0000000   0.0000000   0.0000000   0.0000000   0.0000000   0.0000000
 NMagM=    0.0000000   2.7928460   0.0000000   2.7928460   0.0000000   2.7928460   2.7928460   0.0000000   0.0000000   0.0000000
 AtZNuc=   6.0000000   1.0000000   6.0000000   1.0000000   6.0000000   1.0000000   1.0000000   6.0000000   6.0000000   6.0000000

  Atom        31          32          33          34          35          36          37          38          39          40
 IAtWgt=          12           1          12           1          12           1           1          12           1           1
 AtmWgt=  12.0000000   1.0078250  12.0000000   1.0078250  12.0000000   1.0078250   1.0078250  12.0000000   1.0078250   1.0078250
 NucSpn=           0           1           0           1           0           1           1           0           1           1
 AtZEff=  -0.0000000  -0.0000000  -0.0000000  -0.0000000  -0.0000000  -0.0000000  -0.0000000  -0.0000000  -0.0000000  -0.0000000
 NQMom=    0.0000000   0.0000000   0.0000000   0.0000000   0.0000000   0.0000000   0.0000000   0.0000000   0.0000000   0.0000000
 NMagM=    0.0000000   2.7928460   0.0000000   2.7928460   0.0000000   2.7928460   2.7928460   0.0000000   2.7928460   2.7928460
 AtZNuc=   6.0000000   1.0000000   6.0000000   1.0000000   6.0000000   1.0000000   1.0000000   6.0000000   1.0000000   1.0000000

  Atom        41          42          43          44          45          46          47          48          49          50
 IAtWgt=          12           1           1          12           1           1           1          12           1           1
 AtmWgt=  12.0000000   1.0078250   1.0078250  12.0000000   1.0078250   1.0078250   1.0078250  12.0000000   1.0078250   1.0078250
 NucSpn=           0           1           1           0           1           1           1           0           1           1
 AtZEff=  -0.0000000  -0.0000000  -0.0000000  -0.0000000  -0.0000000  -0.0000000  -0.0000000  -0.0000000  -0.0000000  -0.0000000
 NQMom=    0.0000000   0.0000000   0.0000000   0.0000000   0.0000000   0.0000000   0.0000000   0.0000000   0.0000000   0.0000000
 NMagM=    0.0000000   2.7928460   2.7928460   0.0000000   2.7928460   2.7928460   2.7928460   0.0000000   2.7928460   2.7928460
 AtZNuc=   6.0000000   1.0000000   1.0000000   6.0000000   1.0000000   1.0000000   1.0000000   6.0000000   1.0000000   1.0000000

  Atom        51          52          53          54          55          56          57          58          59          60
 IAtWgt=           1          12           1           1           1          12           1           1           1          12
 AtmWgt=   1.0078250  12.0000000   1.0078250   1.0078250   1.0078250  12.0000000   1.0078250   1.0078250   1.0078250  12.0000000
 NucSpn=           1           0           1           1           1           0           1           1           1           0
 AtZEff=  -0.0000000  -0.0000000  -0.0000000  -0.0000000  -0.0000000  -0.0000000  -0.0000000  -0.0000000  -0.0000000  -0.0000000
 NQMom=    0.0000000   0.0000000   0.0000000   0.0000000   0.0000000   0.0000000   0.0000000   0.0000000   0.0000000   0.0000000
 NMagM=    2.7928460   0.0000000   2.7928460   2.7928460   2.7928460   0.0000000   2.7928460   2.7928460   2.7928460   0.0000000
 AtZNuc=   1.0000000   6.0000000   1.0000000   1.0000000   1.0000000   6.0000000   1.0000000   1.0000000   1.0000000   6.0000000

  Atom        61          62          63          64          65          66          67          68          69          70
 IAtWgt=           1           1           1          12           1           1           1          14          14          12
 AtmWgt=   1.0078250   1.0078250   1.0078250  12.0000000   1.0078250   1.0078250   1.0078250  14.0030740  14.0030740  12.0000000
 NucSpn=           1           1           1           0           1           1           1           2           2           0
 AtZEff=  -0.0000000  -0.0000000  -0.0000000  -0.0000000  -0.0000000  -0.0000000  -0.0000000  -0.0000000  -0.0000000  -0.0000000
 NQMom=    0.0000000   0.0000000   0.0000000   0.0000000   0.0000000   0.0000000   0.0000000   2.0440000   2.0440000   0.0000000
 NMagM=    2.7928460   2.7928460   2.7928460   0.0000000   2.7928460   2.7928460   2.7928460   0.4037610   0.4037610   0.0000000
 AtZNuc=   1.0000000   1.0000000   1.0000000   6.0000000   1.0000000   1.0000000   1.0000000   7.0000000   7.0000000   6.0000000

  Atom        71          72          73          74          75          76          77          78          79          80
 IAtWgt=          16          16          16           1           1           1           1          16           1           1
 AtmWgt=  15.9949146  15.9949146  15.9949146   1.0078250   1.0078250   1.0078250   1.0078250  15.9949146   1.0078250   1.0078250
 NucSpn=           0           0           0           1           1           1           1           0           1           1
 AtZEff=  -0.0000000  -0.0000000  -0.0000000  -0.0000000  -0.0000000  -0.0000000  -0.0000000  -0.0000000  -0.0000000  -0.0000000
 NQMom=    0.0000000   0.0000000   0.0000000   0.0000000   0.0000000   0.0000000   0.0000000   0.0000000   0.0000000   0.0000000
 NMagM=    0.0000000   0.0000000   0.0000000   2.7928460   2.7928460   2.7928460   2.7928460   0.0000000   2.7928460   2.7928460
 AtZNuc=   8.0000000   8.0000000   8.0000000   1.0000000   1.0000000   1.0000000   1.0000000   8.0000000   1.0000000   1.0000000

  Atom        81          82          83          84          85          86          87          88          89
 IAtWgt=          16           1           1          16           1           1          16           1           1
 AtmWgt=  15.9949146   1.0078250   1.0078250  15.9949146   1.0078250   1.0078250  15.9949146   1.0078250   1.0078250
 NucSpn=           0           1           1           0           1           1           0           1           1
 AtZEff=  -0.0000000  -0.0000000  -0.0000000  -0.0000000  -0.0000000  -0.0000000  -0.0000000  -0.0000000  -0.0000000
 NQMom=    0.0000000   0.0000000   0.0000000   0.0000000   0.0000000   0.0000000   0.0000000   0.0000000   0.0000000
 NMagM=    0.0000000   2.7928460   2.7928460   0.0000000   2.7928460   2.7928460   0.0000000   2.7928460   2.7928460
 AtZNuc=   8.0000000   1.0000000   1.0000000   8.0000000   1.0000000   1.0000000   8.0000000   1.0000000   1.0000000
 Leave Link  101 at Mon Mar 18 19:19:10 2024, MaxMem=  2013265920 cpu:               5.2 elap:               0.4
 (Enter /packages/apps/gaussian/g16/g16/l103.exe)

 GradGradGradGradGradGradGradGradGradGradGradGradGradGradGradGradGradGrad
 Berny optimization.
 Initialization pass.
                           ----------------------------
                           !    Initial Parameters    !
                           ! (Angstroms and Degrees)  !
 --------------------------                            --------------------------
 ! Name  Definition              Value          Derivative Info.                !
 --------------------------------------------------------------------------------
 ! R1    R(1,2)                  1.5293         estimate D2E/DX2                !
 ! R2    R(1,3)                  1.0901         estimate D2E/DX2                !
 ! R3    R(1,4)                  1.0906         estimate D2E/DX2                !
 ! R4    R(1,5)                  1.0913         estimate D2E/DX2                !
 ! R5    R(2,6)                  1.54           estimate D2E/DX2                !
 ! R6    R(2,7)                  1.0937         estimate D2E/DX2                !
 ! R7    R(2,18)                 1.5154         estimate D2E/DX2                !
 ! R8    R(6,8)                  1.5267         estimate D2E/DX2                !
 ! R9    R(6,76)                 1.0938         estimate D2E/DX2                !
 ! R10   R(6,77)                 1.0949         estimate D2E/DX2                !
 ! R11   R(8,9)                  1.0948         estimate D2E/DX2                !
 ! R12   R(8,10)                 1.0908         estimate D2E/DX2                !
 ! R13   R(8,11)                 1.525          estimate D2E/DX2                !
 ! R14   R(11,12)                1.5338         estimate D2E/DX2                !
 ! R15   R(11,74)                1.0944         estimate D2E/DX2                !
 ! R16   R(11,75)                1.0941         estimate D2E/DX2                !
 ! R17   R(12,13)                1.0944         estimate D2E/DX2                !
 ! R18   R(12,14)                1.5335         estimate D2E/DX2                !
 ! R19   R(12,28)                1.517          estimate D2E/DX2                !
 ! R20   R(14,15)                1.0902         estimate D2E/DX2                !
 ! R21   R(14,16)                1.0916         estimate D2E/DX2                !
 ! R22   R(14,17)                1.0912         estimate D2E/DX2                !
 ! R23   R(18,19)                1.3937         estimate D2E/DX2                !
 ! R24   R(18,20)                1.3918         estimate D2E/DX2                !
 ! R25   R(19,21)                1.3857         estimate D2E/DX2                !
 ! R26   R(19,22)                1.0822         estimate D2E/DX2                !
 ! R27   R(20,23)                1.3851         estimate D2E/DX2                !
 ! R28   R(20,24)                1.0828         estimate D2E/DX2                !
 ! R29   R(21,25)                1.3921         estimate D2E/DX2                !
 ! R30   R(21,26)                1.0829         estimate D2E/DX2                !
 ! R31   R(23,25)                1.3927         estimate D2E/DX2                !
 ! R32   R(23,27)                1.0823         estimate D2E/DX2                !
 ! R33   R(25,41)                1.4988         estimate D2E/DX2                !
 ! R34   R(28,29)                1.3931         estimate D2E/DX2                !
 ! R35   R(28,30)                1.3924         estimate D2E/DX2                !
 ! R36   R(29,31)                1.3832         estimate D2E/DX2                !
 ! R37   R(29,32)                1.0823         estimate D2E/DX2                !
 ! R38   R(30,33)                1.3874         estimate D2E/DX2                !
 ! R39   R(30,34)                1.0835         estimate D2E/DX2                !
 ! R40   R(31,35)                1.3921         estimate D2E/DX2                !
 ! R41   R(31,36)                1.0809         estimate D2E/DX2                !
 ! R42   R(33,35)                1.3907         estimate D2E/DX2                !
 ! R43   R(33,37)                1.0841         estimate D2E/DX2                !
 ! R44   R(35,38)                1.4995         estimate D2E/DX2                !
 ! R45   R(38,39)                1.0887         estimate D2E/DX2                !
 ! R46   R(38,40)                1.0879         estimate D2E/DX2                !
 ! R47   R(38,68)                1.5261         estimate D2E/DX2                !
 ! R48   R(41,42)                1.0876         estimate D2E/DX2                !
 ! R49   R(41,43)                1.0897         estimate D2E/DX2                !
 ! R50   R(41,69)                1.5211         estimate D2E/DX2                !
 ! R51   R(43,71)                1.944          estimate D2E/DX2                !
 ! R52   R(44,45)                1.0878         estimate D2E/DX2                !
 ! R53   R(44,46)                1.0865         estimate D2E/DX2                !
 ! R54   R(44,47)                1.0911         estimate D2E/DX2                !
 ! R55   R(44,68)                1.4964         estimate D2E/DX2                !
 ! R56   R(47,73)                2.0837         estimate D2E/DX2                !
 ! R57   R(48,49)                1.0865         estimate D2E/DX2                !
 ! R58   R(48,50)                1.0873         estimate D2E/DX2                !
 ! R59   R(48,51)                1.087          estimate D2E/DX2                !
 ! R60   R(48,68)                1.4833         estimate D2E/DX2                !
 ! R61   R(52,53)                1.0922         estimate D2E/DX2                !
 ! R62   R(52,54)                1.0855         estimate D2E/DX2                !
 ! R63   R(52,55)                1.0876         estimate D2E/DX2                !
 ! R64   R(52,68)                1.4958         estimate D2E/DX2                !
 ! R65   R(56,57)                1.0883         estimate D2E/DX2                !
 ! R66   R(56,58)                1.0906         estimate D2E/DX2                !
 ! R67   R(56,59)                1.088          estimate D2E/DX2                !
 ! R68   R(56,69)                1.4971         estimate D2E/DX2                !
 ! R69   R(60,61)                1.0891         estimate D2E/DX2                !
 ! R70   R(60,62)                1.0858         estimate D2E/DX2                !
 ! R71   R(60,63)                1.088          estimate D2E/DX2                !
 ! R72   R(60,69)                1.49           estimate D2E/DX2                !
 ! R73   R(64,65)                1.0871         estimate D2E/DX2                !
 ! R74   R(64,66)                1.0868         estimate D2E/DX2                !
 ! R75   R(64,67)                1.0875         estimate D2E/DX2                !
 ! R76   R(64,69)                1.4828         estimate D2E/DX2                !
 ! R77   R(70,71)                1.294          estimate D2E/DX2                !
 ! R78   R(70,72)                1.2909         estimate D2E/DX2                !
 ! R79   R(70,73)                1.2743         estimate D2E/DX2                !
 ! R80   R(71,82)                1.6186         estimate D2E/DX2                !
 ! R81   R(72,79)                1.7514         estimate D2E/DX2                !
 ! R82   R(72,85)                1.7046         estimate D2E/DX2                !
 ! R83   R(73,88)                1.7188         estimate D2E/DX2                !
 ! R84   R(78,79)                0.9826         estimate D2E/DX2                !
 ! R85   R(78,80)                0.9586         estimate D2E/DX2                !
 ! R86   R(81,82)                0.9976         estimate D2E/DX2                !
 ! R87   R(81,83)                0.9583         estimate D2E/DX2                !
 ! R88   R(84,85)                0.9882         estimate D2E/DX2                !
 ! R89   R(84,86)                0.9572         estimate D2E/DX2                !
 ! R90   R(87,88)                0.9899         estimate D2E/DX2                !
 ! R91   R(87,89)                0.9576         estimate D2E/DX2                !
 ! A1    A(2,1,3)              111.2617         estimate D2E/DX2                !
 ! A2    A(2,1,4)              110.3339         estimate D2E/DX2                !
 ! A3    A(2,1,5)              111.4822         estimate D2E/DX2                !
 ! A4    A(3,1,4)              108.2738         estimate D2E/DX2                !
 ! A5    A(3,1,5)              107.9586         estimate D2E/DX2                !
 ! A6    A(4,1,5)              107.3818         estimate D2E/DX2                !
 ! A7    A(1,2,6)              110.9658         estimate D2E/DX2                !
 ! A8    A(1,2,7)              107.7981         estimate D2E/DX2                !
 ! A9    A(1,2,18)             112.8089         estimate D2E/DX2                !
 ! A10   A(6,2,7)              107.6529         estimate D2E/DX2                !
 ! A11   A(6,2,18)             110.1373         estimate D2E/DX2                !
 ! A12   A(7,2,18)             107.2468         estimate D2E/DX2                !
 ! A13   A(2,6,8)              114.1787         estimate D2E/DX2                !
 ! A14   A(2,6,76)             108.7889         estimate D2E/DX2                !
 ! A15   A(2,6,77)             108.3718         estimate D2E/DX2                !
 ! A16   A(8,6,76)             109.4312         estimate D2E/DX2                !
 ! A17   A(8,6,77)             109.5015         estimate D2E/DX2                !
 ! A18   A(76,6,77)            106.2655         estimate D2E/DX2                !
 ! A19   A(6,8,9)              109.3684         estimate D2E/DX2                !
 ! A20   A(6,8,10)             109.6369         estimate D2E/DX2                !
 ! A21   A(6,8,11)             112.6417         estimate D2E/DX2                !
 ! A22   A(9,8,10)             106.1162         estimate D2E/DX2                !
 ! A23   A(9,8,11)             109.7385         estimate D2E/DX2                !
 ! A24   A(10,8,11)            109.129          estimate D2E/DX2                !
 ! A25   A(8,11,12)            115.0214         estimate D2E/DX2                !
 ! A26   A(8,11,74)            109.0828         estimate D2E/DX2                !
 ! A27   A(8,11,75)            109.4966         estimate D2E/DX2                !
 ! A28   A(12,11,74)           109.5892         estimate D2E/DX2                !
 ! A29   A(12,11,75)           107.5952         estimate D2E/DX2                !
 ! A30   A(74,11,75)           105.6363         estimate D2E/DX2                !
 ! A31   A(11,12,13)           107.3523         estimate D2E/DX2                !
 ! A32   A(11,12,14)           110.334          estimate D2E/DX2                !
 ! A33   A(11,12,28)           114.3761         estimate D2E/DX2                !
 ! A34   A(13,12,14)           107.8033         estimate D2E/DX2                !
 ! A35   A(13,12,28)           106.8578         estimate D2E/DX2                !
 ! A36   A(14,12,28)           109.8313         estimate D2E/DX2                !
 ! A37   A(12,14,15)           111.1743         estimate D2E/DX2                !
 ! A38   A(12,14,16)           110.3628         estimate D2E/DX2                !
 ! A39   A(12,14,17)           110.82           estimate D2E/DX2                !
 ! A40   A(15,14,16)           107.8908         estimate D2E/DX2                !
 ! A41   A(15,14,17)           108.3387         estimate D2E/DX2                !
 ! A42   A(16,14,17)           108.1439         estimate D2E/DX2                !
 ! A43   A(2,18,19)            121.2839         estimate D2E/DX2                !
 ! A44   A(2,18,20)            120.5376         estimate D2E/DX2                !
 ! A45   A(19,18,20)           117.9833         estimate D2E/DX2                !
 ! A46   A(18,19,21)           120.9755         estimate D2E/DX2                !
 ! A47   A(18,19,22)           119.9876         estimate D2E/DX2                !
 ! A48   A(21,19,22)           118.9857         estimate D2E/DX2                !
 ! A49   A(18,20,23)           121.2835         estimate D2E/DX2                !
 ! A50   A(18,20,24)           119.3514         estimate D2E/DX2                !
 ! A51   A(23,20,24)           119.2961         estimate D2E/DX2                !
 ! A52   A(19,21,25)           120.7197         estimate D2E/DX2                !
 ! A53   A(19,21,26)           119.4827         estimate D2E/DX2                !
 ! A54   A(25,21,26)           119.6654         estimate D2E/DX2                !
 ! A55   A(20,23,25)           120.4633         estimate D2E/DX2                !
 ! A56   A(20,23,27)           120.1171         estimate D2E/DX2                !
 ! A57   A(25,23,27)           119.3285         estimate D2E/DX2                !
 ! A58   A(21,25,23)           118.5478         estimate D2E/DX2                !
 ! A59   A(21,25,41)           122.0924         estimate D2E/DX2                !
 ! A60   A(23,25,41)           118.9077         estimate D2E/DX2                !
 ! A61   A(12,28,29)           122.1285         estimate D2E/DX2                !
 ! A62   A(12,28,30)           119.9137         estimate D2E/DX2                !
 ! A63   A(29,28,30)           117.9414         estimate D2E/DX2                !
 ! A64   A(28,29,31)           121.1371         estimate D2E/DX2                !
 ! A65   A(28,29,32)           120.8281         estimate D2E/DX2                !
 ! A66   A(31,29,32)           118.0155         estimate D2E/DX2                !
 ! A67   A(28,30,33)           121.1338         estimate D2E/DX2                !
 ! A68   A(28,30,34)           119.4037         estimate D2E/DX2                !
 ! A69   A(33,30,34)           119.459          estimate D2E/DX2                !
 ! A70   A(29,31,35)           120.652          estimate D2E/DX2                !
 ! A71   A(29,31,36)           119.4919         estimate D2E/DX2                !
 ! A72   A(35,31,36)           119.8376         estimate D2E/DX2                !
 ! A73   A(30,33,35)           120.5208         estimate D2E/DX2                !
 ! A74   A(30,33,37)           119.5118         estimate D2E/DX2                !
 ! A75   A(35,33,37)           119.9371         estimate D2E/DX2                !
 ! A76   A(31,35,33)           118.5767         estimate D2E/DX2                !
 ! A77   A(31,35,38)           119.7685         estimate D2E/DX2                !
 ! A78   A(33,35,38)           121.5268         estimate D2E/DX2                !
 ! A79   A(35,38,39)           111.389          estimate D2E/DX2                !
 ! A80   A(35,38,40)           110.0348         estimate D2E/DX2                !
 ! A81   A(35,38,68)           115.068          estimate D2E/DX2                !
 ! A82   A(39,38,40)           108.216          estimate D2E/DX2                !
 ! A83   A(39,38,68)           104.9161         estimate D2E/DX2                !
 ! A84   A(40,38,68)           106.8575         estimate D2E/DX2                !
 ! A85   A(25,41,42)           111.4466         estimate D2E/DX2                !
 ! A86   A(25,41,43)           108.0066         estimate D2E/DX2                !
 ! A87   A(25,41,69)           116.2485         estimate D2E/DX2                !
 ! A88   A(42,41,43)           107.8969         estimate D2E/DX2                !
 ! A89   A(42,41,69)           106.0871         estimate D2E/DX2                !
 ! A90   A(43,41,69)           106.7955         estimate D2E/DX2                !
 ! A91   A(41,43,71)           164.4749         estimate D2E/DX2                !
 ! A92   A(45,44,46)           110.9365         estimate D2E/DX2                !
 ! A93   A(45,44,47)           111.252          estimate D2E/DX2                !
 ! A94   A(45,44,68)           108.1081         estimate D2E/DX2                !
 ! A95   A(46,44,47)           109.4653         estimate D2E/DX2                !
 ! A96   A(46,44,68)           109.0233         estimate D2E/DX2                !
 ! A97   A(47,44,68)           107.9734         estimate D2E/DX2                !
 ! A98   A(44,47,73)           159.4046         estimate D2E/DX2                !
 ! A99   A(49,48,50)           110.0033         estimate D2E/DX2                !
 ! A100  A(49,48,51)           110.1058         estimate D2E/DX2                !
 ! A101  A(49,48,68)           109.0569         estimate D2E/DX2                !
 ! A102  A(50,48,51)           109.8651         estimate D2E/DX2                !
 ! A103  A(50,48,68)           108.9133         estimate D2E/DX2                !
 ! A104  A(51,48,68)           108.8672         estimate D2E/DX2                !
 ! A105  A(53,52,54)           110.1452         estimate D2E/DX2                !
 ! A106  A(53,52,55)           110.3154         estimate D2E/DX2                !
 ! A107  A(53,52,68)           109.8529         estimate D2E/DX2                !
 ! A108  A(54,52,55)           110.0497         estimate D2E/DX2                !
 ! A109  A(54,52,68)           108.9451         estimate D2E/DX2                !
 ! A110  A(55,52,68)           107.4813         estimate D2E/DX2                !
 ! A111  A(57,56,58)           111.1876         estimate D2E/DX2                !
 ! A112  A(57,56,59)           110.3947         estimate D2E/DX2                !
 ! A113  A(57,56,69)           108.3293         estimate D2E/DX2                !
 ! A114  A(58,56,59)           109.3168         estimate D2E/DX2                !
 ! A115  A(58,56,69)           109.9351         estimate D2E/DX2                !
 ! A116  A(59,56,69)           107.6042         estimate D2E/DX2                !
 ! A117  A(61,60,62)           111.3187         estimate D2E/DX2                !
 ! A118  A(61,60,63)           109.7996         estimate D2E/DX2                !
 ! A119  A(61,60,69)           108.4971         estimate D2E/DX2                !
 ! A120  A(62,60,63)           110.2223         estimate D2E/DX2                !
 ! A121  A(62,60,69)           109.0799         estimate D2E/DX2                !
 ! A122  A(63,60,69)           107.8365         estimate D2E/DX2                !
 ! A123  A(65,64,66)           110.1895         estimate D2E/DX2                !
 ! A124  A(65,64,67)           109.9424         estimate D2E/DX2                !
 ! A125  A(65,64,69)           108.887          estimate D2E/DX2                !
 ! A126  A(66,64,67)           109.9835         estimate D2E/DX2                !
 ! A127  A(66,64,69)           108.7224         estimate D2E/DX2                !
 ! A128  A(67,64,69)           109.0844         estimate D2E/DX2                !
 ! A129  A(38,68,44)           107.7974         estimate D2E/DX2                !
 ! A130  A(38,68,48)           109.5658         estimate D2E/DX2                !
 ! A131  A(38,68,52)           112.1238         estimate D2E/DX2                !
 ! A132  A(44,68,48)           109.8334         estimate D2E/DX2                !
 ! A133  A(44,68,52)           108.2107         estimate D2E/DX2                !
 ! A134  A(48,68,52)           109.274          estimate D2E/DX2                !
 ! A135  A(41,69,56)           106.8182         estimate D2E/DX2                !
 ! A136  A(41,69,60)           111.782          estimate D2E/DX2                !
 ! A137  A(41,69,64)           109.8266         estimate D2E/DX2                !
 ! A138  A(56,69,60)           108.7548         estimate D2E/DX2                !
 ! A139  A(56,69,64)           109.9398         estimate D2E/DX2                !
 ! A140  A(60,69,64)           109.6674         estimate D2E/DX2                !
 ! A141  A(71,70,72)           118.9456         estimate D2E/DX2                !
 ! A142  A(71,70,73)           120.5562         estimate D2E/DX2                !
 ! A143  A(72,70,73)           120.4633         estimate D2E/DX2                !
 ! A144  A(43,71,70)            93.4995         estimate D2E/DX2                !
 ! A145  A(43,71,82)            80.4336         estimate D2E/DX2                !
 ! A146  A(70,71,82)           114.2615         estimate D2E/DX2                !
 ! A147  A(70,72,79)           103.7263         estimate D2E/DX2                !
 ! A148  A(70,72,85)           126.2905         estimate D2E/DX2                !
 ! A149  A(79,72,85)           107.8273         estimate D2E/DX2                !
 ! A150  A(47,73,70)           110.7426         estimate D2E/DX2                !
 ! A151  A(47,73,88)            72.5672         estimate D2E/DX2                !
 ! A152  A(70,73,88)           109.2993         estimate D2E/DX2                !
 ! A153  A(79,78,80)           101.2068         estimate D2E/DX2                !
 ! A154  A(82,81,83)           104.1098         estimate D2E/DX2                !
 ! A155  A(85,84,86)           104.2069         estimate D2E/DX2                !
 ! A156  A(88,87,89)           102.9625         estimate D2E/DX2                !
 ! A157  L(72,79,78,26,-1)     179.8236         estimate D2E/DX2                !
 ! A158  L(71,82,81,1,-1)      174.2746         estimate D2E/DX2                !
 ! A159  L(72,85,84,23,-1)     181.6552         estimate D2E/DX2                !
 ! A160  L(73,88,87,1,-1)      177.1931         estimate D2E/DX2                !
 ! A161  L(72,79,78,26,-2)     195.5197         estimate D2E/DX2                !
 ! A162  L(71,82,81,1,-2)      175.2766         estimate D2E/DX2                !
 ! A163  L(72,85,84,23,-2)     179.2939         estimate D2E/DX2                !
 ! A164  L(73,88,87,1,-2)      187.6652         estimate D2E/DX2                !
 ! D1    D(3,1,2,6)            177.7848         estimate D2E/DX2                !
 ! D2    D(3,1,2,7)            -64.5641         estimate D2E/DX2                !
 ! D3    D(3,1,2,18)            53.6529         estimate D2E/DX2                !
 ! D4    D(4,1,2,6)            -62.0153         estimate D2E/DX2                !
 ! D5    D(4,1,2,7)             55.6359         estimate D2E/DX2                !
 ! D6    D(4,1,2,18)           173.8529         estimate D2E/DX2                !
 ! D7    D(5,1,2,6)             57.2085         estimate D2E/DX2                !
 ! D8    D(5,1,2,7)            174.8596         estimate D2E/DX2                !
 ! D9    D(5,1,2,18)           -66.9234         estimate D2E/DX2                !
 ! D10   D(1,2,6,8)            168.5108         estimate D2E/DX2                !
 ! D11   D(1,2,6,76)            45.9675         estimate D2E/DX2                !
 ! D12   D(1,2,6,77)           -69.1661         estimate D2E/DX2                !
 ! D13   D(7,2,6,8)             50.7712         estimate D2E/DX2                !
 ! D14   D(7,2,6,76)           -71.7721         estimate D2E/DX2                !
 ! D15   D(7,2,6,77)           173.0944         estimate D2E/DX2                !
 ! D16   D(18,2,6,8)           -65.85           estimate D2E/DX2                !
 ! D17   D(18,2,6,76)          171.6067         estimate D2E/DX2                !
 ! D18   D(18,2,6,77)           56.4732         estimate D2E/DX2                !
 ! D19   D(1,2,18,19)           50.4861         estimate D2E/DX2                !
 ! D20   D(1,2,18,20)         -134.6935         estimate D2E/DX2                !
 ! D21   D(6,2,18,19)          -74.1001         estimate D2E/DX2                !
 ! D22   D(6,2,18,20)          100.7203         estimate D2E/DX2                !
 ! D23   D(7,2,18,19)          169.0254         estimate D2E/DX2                !
 ! D24   D(7,2,18,20)          -16.1542         estimate D2E/DX2                !
 ! D25   D(2,6,8,9)            -69.814          estimate D2E/DX2                !
 ! D26   D(2,6,8,10)            46.1521         estimate D2E/DX2                !
 ! D27   D(2,6,8,11)           167.8752         estimate D2E/DX2                !
 ! D28   D(76,6,8,9)            52.3781         estimate D2E/DX2                !
 ! D29   D(76,6,8,10)          168.3442         estimate D2E/DX2                !
 ! D30   D(76,6,8,11)          -69.9327         estimate D2E/DX2                !
 ! D31   D(77,6,8,9)           168.4828         estimate D2E/DX2                !
 ! D32   D(77,6,8,10)          -75.5511         estimate D2E/DX2                !
 ! D33   D(77,6,8,11)           46.172          estimate D2E/DX2                !
 ! D34   D(6,8,11,12)          174.1236         estimate D2E/DX2                !
 ! D35   D(6,8,11,74)          -62.3043         estimate D2E/DX2                !
 ! D36   D(6,8,11,75)           52.8485         estimate D2E/DX2                !
 ! D37   D(9,8,11,12)           52.0215         estimate D2E/DX2                !
 ! D38   D(9,8,11,74)          175.5937         estimate D2E/DX2                !
 ! D39   D(9,8,11,75)          -69.2536         estimate D2E/DX2                !
 ! D40   D(10,8,11,12)         -63.8658         estimate D2E/DX2                !
 ! D41   D(10,8,11,74)          59.7063         estimate D2E/DX2                !
 ! D42   D(10,8,11,75)         174.859          estimate D2E/DX2                !
 ! D43   D(8,11,12,13)         -63.8474         estimate D2E/DX2                !
 ! D44   D(8,11,12,14)         178.9324         estimate D2E/DX2                !
 ! D45   D(8,11,12,28)          54.5213         estimate D2E/DX2                !
 ! D46   D(74,11,12,13)        172.8496         estimate D2E/DX2                !
 ! D47   D(74,11,12,14)         55.6293         estimate D2E/DX2                !
 ! D48   D(74,11,12,28)        -68.7817         estimate D2E/DX2                !
 ! D49   D(75,11,12,13)         58.4571         estimate D2E/DX2                !
 ! D50   D(75,11,12,14)        -58.7632         estimate D2E/DX2                !
 ! D51   D(75,11,12,28)        176.8257         estimate D2E/DX2                !
 ! D52   D(11,12,14,15)        176.3545         estimate D2E/DX2                !
 ! D53   D(11,12,14,16)        -63.964          estimate D2E/DX2                !
 ! D54   D(11,12,14,17)         55.805          estimate D2E/DX2                !
 ! D55   D(13,12,14,15)         59.4137         estimate D2E/DX2                !
 ! D56   D(13,12,14,16)        179.0952         estimate D2E/DX2                !
 ! D57   D(13,12,14,17)        -61.1358         estimate D2E/DX2                !
 ! D58   D(28,12,14,15)        -56.6644         estimate D2E/DX2                !
 ! D59   D(28,12,14,16)         63.017          estimate D2E/DX2                !
 ! D60   D(28,12,14,17)       -177.214          estimate D2E/DX2                !
 ! D61   D(11,12,28,29)         36.9378         estimate D2E/DX2                !
 ! D62   D(11,12,28,30)       -144.569          estimate D2E/DX2                !
 ! D63   D(13,12,28,29)        155.5867         estimate D2E/DX2                !
 ! D64   D(13,12,28,30)        -25.9201         estimate D2E/DX2                !
 ! D65   D(14,12,28,29)        -87.7402         estimate D2E/DX2                !
 ! D66   D(14,12,28,30)         90.7531         estimate D2E/DX2                !
 ! D67   D(2,18,19,21)         173.5853         estimate D2E/DX2                !
 ! D68   D(2,18,19,22)          -3.7862         estimate D2E/DX2                !
 ! D69   D(20,18,19,21)         -1.3633         estimate D2E/DX2                !
 ! D70   D(20,18,19,22)       -178.7348         estimate D2E/DX2                !
 ! D71   D(2,18,20,23)        -172.9878         estimate D2E/DX2                !
 ! D72   D(2,18,20,24)           3.9691         estimate D2E/DX2                !
 ! D73   D(19,18,20,23)          2.0001         estimate D2E/DX2                !
 ! D74   D(19,18,20,24)        178.957          estimate D2E/DX2                !
 ! D75   D(18,19,21,25)          0.0792         estimate D2E/DX2                !
 ! D76   D(18,19,21,26)       -175.7272         estimate D2E/DX2                !
 ! D77   D(22,19,21,25)        177.4765         estimate D2E/DX2                !
 ! D78   D(22,19,21,26)          1.6701         estimate D2E/DX2                !
 ! D79   D(18,20,23,25)         -1.3541         estimate D2E/DX2                !
 ! D80   D(18,20,23,27)        175.1532         estimate D2E/DX2                !
 ! D81   D(24,20,23,25)       -178.3126         estimate D2E/DX2                !
 ! D82   D(24,20,23,27)         -1.8053         estimate D2E/DX2                !
 ! D83   D(19,21,25,23)          0.6066         estimate D2E/DX2                !
 ! D84   D(19,21,25,41)       -171.5887         estimate D2E/DX2                !
 ! D85   D(26,21,25,23)        176.4053         estimate D2E/DX2                !
 ! D86   D(26,21,25,41)          4.2101         estimate D2E/DX2                !
 ! D87   D(20,23,25,21)          0.0203         estimate D2E/DX2                !
 ! D88   D(20,23,25,41)        172.4685         estimate D2E/DX2                !
 ! D89   D(27,23,25,21)       -176.5144         estimate D2E/DX2                !
 ! D90   D(27,23,25,41)         -4.0662         estimate D2E/DX2                !
 ! D91   D(21,25,41,42)         28.2337         estimate D2E/DX2                !
 ! D92   D(21,25,41,43)        146.584          estimate D2E/DX2                !
 ! D93   D(21,25,41,69)        -93.4784         estimate D2E/DX2                !
 ! D94   D(23,25,41,42)       -143.9344         estimate D2E/DX2                !
 ! D95   D(23,25,41,43)        -25.5841         estimate D2E/DX2                !
 ! D96   D(23,25,41,69)         94.3534         estimate D2E/DX2                !
 ! D97   D(12,28,29,31)       -179.8762         estimate D2E/DX2                !
 ! D98   D(12,28,29,32)         -1.5041         estimate D2E/DX2                !
 ! D99   D(30,28,29,31)          1.6022         estimate D2E/DX2                !
 ! D100  D(30,28,29,32)        179.9743         estimate D2E/DX2                !
 ! D101  D(12,28,30,33)       -178.5167         estimate D2E/DX2                !
 ! D102  D(12,28,30,34)          2.1645         estimate D2E/DX2                !
 ! D103  D(29,28,30,33)          0.0389         estimate D2E/DX2                !
 ! D104  D(29,28,30,34)       -179.2799         estimate D2E/DX2                !
 ! D105  D(28,29,31,35)         -2.3908         estimate D2E/DX2                !
 ! D106  D(28,29,31,36)        176.0444         estimate D2E/DX2                !
 ! D107  D(32,29,31,35)        179.1926         estimate D2E/DX2                !
 ! D108  D(32,29,31,36)         -2.3721         estimate D2E/DX2                !
 ! D109  D(28,30,33,35)         -0.9128         estimate D2E/DX2                !
 ! D110  D(28,30,33,37)       -178.9091         estimate D2E/DX2                !
 ! D111  D(34,30,33,35)        178.4057         estimate D2E/DX2                !
 ! D112  D(34,30,33,37)          0.4093         estimate D2E/DX2                !
 ! D113  D(29,31,35,33)          1.4708         estimate D2E/DX2                !
 ! D114  D(29,31,35,38)        177.4216         estimate D2E/DX2                !
 ! D115  D(36,31,35,33)       -176.9591         estimate D2E/DX2                !
 ! D116  D(36,31,35,38)         -1.0083         estimate D2E/DX2                !
 ! D117  D(30,33,35,31)          0.1579         estimate D2E/DX2                !
 ! D118  D(30,33,35,38)       -175.7184         estimate D2E/DX2                !
 ! D119  D(37,33,35,31)        178.1457         estimate D2E/DX2                !
 ! D120  D(37,33,35,38)          2.2693         estimate D2E/DX2                !
 ! D121  D(31,35,38,39)       -157.8925         estimate D2E/DX2                !
 ! D122  D(31,35,38,40)        -37.881          estimate D2E/DX2                !
 ! D123  D(31,35,38,68)         82.8721         estimate D2E/DX2                !
 ! D124  D(33,35,38,39)         17.9356         estimate D2E/DX2                !
 ! D125  D(33,35,38,40)        137.9471         estimate D2E/DX2                !
 ! D126  D(33,35,38,68)       -101.2998         estimate D2E/DX2                !
 ! D127  D(35,38,68,44)       -174.6519         estimate D2E/DX2                !
 ! D128  D(35,38,68,48)         65.8583         estimate D2E/DX2                !
 ! D129  D(35,38,68,52)        -55.6517         estimate D2E/DX2                !
 ! D130  D(39,38,68,44)         62.5785         estimate D2E/DX2                !
 ! D131  D(39,38,68,48)        -56.9114         estimate D2E/DX2                !
 ! D132  D(39,38,68,52)       -178.4213         estimate D2E/DX2                !
 ! D133  D(40,38,68,44)        -52.1767         estimate D2E/DX2                !
 ! D134  D(40,38,68,48)       -171.6666         estimate D2E/DX2                !
 ! D135  D(40,38,68,52)         66.8235         estimate D2E/DX2                !
 ! D136  D(25,41,43,71)        -35.7776         estimate D2E/DX2                !
 ! D137  D(42,41,43,71)         84.8185         estimate D2E/DX2                !
 ! D138  D(69,41,43,71)       -161.5011         estimate D2E/DX2                !
 ! D139  D(25,41,69,56)       -164.3868         estimate D2E/DX2                !
 ! D140  D(25,41,69,60)        -45.5381         estimate D2E/DX2                !
 ! D141  D(25,41,69,64)         76.4236         estimate D2E/DX2                !
 ! D142  D(42,41,69,56)         71.107          estimate D2E/DX2                !
 ! D143  D(42,41,69,60)       -170.0443         estimate D2E/DX2                !
 ! D144  D(42,41,69,64)        -48.0826         estimate D2E/DX2                !
 ! D145  D(43,41,69,56)        -43.7987         estimate D2E/DX2                !
 ! D146  D(43,41,69,60)         75.05           estimate D2E/DX2                !
 ! D147  D(43,41,69,64)       -162.9883         estimate D2E/DX2                !
 ! D148  D(41,43,71,70)       -112.5856         estimate D2E/DX2                !
 ! D149  D(41,43,71,82)        133.3872         estimate D2E/DX2                !
 ! D150  D(45,44,47,73)       -158.7449         estimate D2E/DX2                !
 ! D151  D(46,44,47,73)         78.2913         estimate D2E/DX2                !
 ! D152  D(68,44,47,73)        -40.2705         estimate D2E/DX2                !
 ! D153  D(45,44,68,38)       -171.491          estimate D2E/DX2                !
 ! D154  D(45,44,68,48)        -52.1712         estimate D2E/DX2                !
 ! D155  D(45,44,68,52)         67.0422         estimate D2E/DX2                !
 ! D156  D(46,44,68,38)        -50.7992         estimate D2E/DX2                !
 ! D157  D(46,44,68,48)         68.5206         estimate D2E/DX2                !
 ! D158  D(46,44,68,52)       -172.2661         estimate D2E/DX2                !
 ! D159  D(47,44,68,38)         68.0444         estimate D2E/DX2                !
 ! D160  D(47,44,68,48)       -172.6358         estimate D2E/DX2                !
 ! D161  D(47,44,68,52)        -53.4225         estimate D2E/DX2                !
 ! D162  D(44,47,73,70)         34.3828         estimate D2E/DX2                !
 ! D163  D(44,47,73,88)        -70.1837         estimate D2E/DX2                !
 ! D164  D(49,48,68,38)        -58.9861         estimate D2E/DX2                !
 ! D165  D(49,48,68,44)       -177.2172         estimate D2E/DX2                !
 ! D166  D(49,48,68,52)         64.2235         estimate D2E/DX2                !
 ! D167  D(50,48,68,38)         61.0749         estimate D2E/DX2                !
 ! D168  D(50,48,68,44)        -57.1561         estimate D2E/DX2                !
 ! D169  D(50,48,68,52)       -175.7155         estimate D2E/DX2                !
 ! D170  D(51,48,68,38)       -179.1441         estimate D2E/DX2                !
 ! D171  D(51,48,68,44)         62.6248         estimate D2E/DX2                !
 ! D172  D(51,48,68,52)        -55.9345         estimate D2E/DX2                !
 ! D173  D(53,52,68,38)        -54.0011         estimate D2E/DX2                !
 ! D174  D(53,52,68,44)         64.7556         estimate D2E/DX2                !
 ! D175  D(53,52,68,48)       -175.6784         estimate D2E/DX2                !
 ! D176  D(54,52,68,38)         66.734          estimate D2E/DX2                !
 ! D177  D(54,52,68,44)       -174.5093         estimate D2E/DX2                !
 ! D178  D(54,52,68,48)        -54.9432         estimate D2E/DX2                !
 ! D179  D(55,52,68,38)       -174.0484         estimate D2E/DX2                !
 ! D180  D(55,52,68,44)        -55.2917         estimate D2E/DX2                !
 ! D181  D(55,52,68,48)         64.2744         estimate D2E/DX2                !
 ! D182  D(57,56,69,41)       -172.1371         estimate D2E/DX2                !
 ! D183  D(57,56,69,60)         67.0638         estimate D2E/DX2                !
 ! D184  D(57,56,69,64)        -53.021          estimate D2E/DX2                !
 ! D185  D(58,56,69,41)        -50.4581         estimate D2E/DX2                !
 ! D186  D(58,56,69,60)       -171.2571         estimate D2E/DX2                !
 ! D187  D(58,56,69,64)         68.6581         estimate D2E/DX2                !
 ! D188  D(59,56,69,41)         68.5049         estimate D2E/DX2                !
 ! D189  D(59,56,69,60)        -52.2941         estimate D2E/DX2                !
 ! D190  D(59,56,69,64)       -172.3789         estimate D2E/DX2                !
 ! D191  D(61,60,69,41)        -58.0902         estimate D2E/DX2                !
 ! D192  D(61,60,69,56)         59.6032         estimate D2E/DX2                !
 ! D193  D(61,60,69,64)        179.8567         estimate D2E/DX2                !
 ! D194  D(62,60,69,41)         63.3332         estimate D2E/DX2                !
 ! D195  D(62,60,69,56)       -178.9734         estimate D2E/DX2                !
 ! D196  D(62,60,69,64)        -58.7199         estimate D2E/DX2                !
 ! D197  D(63,60,69,41)       -176.9627         estimate D2E/DX2                !
 ! D198  D(63,60,69,56)        -59.2693         estimate D2E/DX2                !
 ! D199  D(63,60,69,64)         60.9842         estimate D2E/DX2                !
 ! D200  D(65,64,69,41)        -59.3795         estimate D2E/DX2                !
 ! D201  D(65,64,69,56)       -176.6364         estimate D2E/DX2                !
 ! D202  D(65,64,69,60)         63.834          estimate D2E/DX2                !
 ! D203  D(66,64,69,41)         60.6931         estimate D2E/DX2                !
 ! D204  D(66,64,69,56)        -56.5638         estimate D2E/DX2                !
 ! D205  D(66,64,69,60)       -176.0935         estimate D2E/DX2                !
 ! D206  D(67,64,69,41)       -179.3673         estimate D2E/DX2                !
 ! D207  D(67,64,69,56)         63.3758         estimate D2E/DX2                !
 ! D208  D(67,64,69,60)        -56.1539         estimate D2E/DX2                !
 ! D209  D(72,70,71,43)         59.5497         estimate D2E/DX2                !
 ! D210  D(72,70,71,82)        140.6289         estimate D2E/DX2                !
 ! D211  D(73,70,71,43)       -122.591          estimate D2E/DX2                !
 ! D212  D(73,70,71,82)        -41.5117         estimate D2E/DX2                !
 ! D213  D(71,70,72,79)       -128.7325         estimate D2E/DX2                !
 ! D214  D(71,70,72,85)         -3.9576         estimate D2E/DX2                !
 ! D215  D(73,70,72,79)         53.4061         estimate D2E/DX2                !
 ! D216  D(73,70,72,85)        178.181          estimate D2E/DX2                !
 ! D217  D(71,70,73,47)        -94.1946         estimate D2E/DX2                !
 ! D218  D(71,70,73,88)        -16.1298         estimate D2E/DX2                !
 ! D219  D(72,70,73,47)         83.6322         estimate D2E/DX2                !
 ! D220  D(72,70,73,88)        161.697          estimate D2E/DX2                !
 ! D221  D(43,71,81,83)        139.6927         estimate D2E/DX2                !
 ! D222  D(70,71,81,83)         51.5414         estimate D2E/DX2                !
 ! D223  D(70,72,78,80)        -37.8814         estimate D2E/DX2                !
 ! D224  D(85,72,78,80)       -171.9647         estimate D2E/DX2                !
 ! D225  D(70,72,84,86)          2.1757         estimate D2E/DX2                !
 ! D226  D(79,72,84,86)        125.7364         estimate D2E/DX2                !
 ! D227  D(47,73,87,89)        117.4788         estimate D2E/DX2                !
 ! D228  D(70,73,87,89)         11.1375         estimate D2E/DX2                !
 --------------------------------------------------------------------------------
 Trust Radius=3.00D-01 FncErr=1.00D-07 GrdErr=1.00D-06 EigMax=2.50D+02 EigMin=1.00D-04
 Number of steps in this run=    493 maximum allowed number of steps=    534.
 GradGradGradGradGradGradGradGradGradGradGradGradGradGradGradGradGradGrad

 Leave Link  103 at Mon Mar 18 19:19:10 2024, MaxMem=  2013265920 cpu:               1.0 elap:               0.2
 (Enter /packages/apps/gaussian/g16/g16/l202.exe)
 Stoichiometry    C28H52N2O7
 Framework group  C1[X(C28H52N2O7)]
 Deg. of freedom   261
 Full point group                 C1      NOp   1
 Largest Abelian subgroup         C1      NOp   1
 Largest concise Abelian subgroup C1      NOp   1
                         Standard orientation:                         
 ---------------------------------------------------------------------
 Center     Atomic      Atomic             Coordinates (Angstroms)
 Number     Number       Type             X           Y           Z
 ---------------------------------------------------------------------
      1          6           0       -5.972759   -2.314967    0.760989
      2          6           0       -4.850940   -1.289316    0.929593
      3          1           0       -5.766766   -3.222920    1.328021
      4          1           0       -6.919775   -1.901530    1.109633
      5          1           0       -6.104682   -2.594525   -0.285583
      6          6           0       -5.121982   -0.031991    0.082642
      7          1           0       -4.832044   -0.984113    1.979723
      8          6           0       -4.204178    1.145846    0.400484
      9          1           0       -4.452443    1.542862    1.390113
     10          1           0       -3.171770    0.799494    0.463461
     11          6           0       -4.295558    2.258391   -0.638555
     12          6           0       -3.503771    3.527896   -0.301025
     13          1           0       -3.943541    3.955560    0.605294
     14          6           0       -3.648748    4.560951   -1.424994
     15          1           0       -3.143911    5.493167   -1.170574
     16          1           0       -3.207396    4.181822   -2.348612
     17          1           0       -4.700304    4.781067   -1.616216
     18          6           0       -3.483825   -1.854713    0.601361
     19          6           0       -3.250250   -2.537486   -0.590990
     20          6           0       -2.398533   -1.611710    1.438157
     21          6           0       -1.971566   -2.936617   -0.945546
     22          1           0       -4.067113   -2.725822   -1.275408
     23          6           0       -1.116229   -1.996744    1.083182
     24          1           0       -2.551901   -1.068154    2.362000
     25          6           0       -0.886559   -2.666020   -0.116396
     26          1           0       -1.806808   -3.403569   -1.908626
     27          1           0       -0.275742   -1.729555    1.710504
     28          6           0       -2.034692    3.289920   -0.007106
     29          6           0       -1.286159    2.337822   -0.695529
     30          6           0       -1.386127    4.057624    0.956596
     31          6           0        0.051908    2.136058   -0.408948
     32          1           0       -1.743107    1.715356   -1.453823
     33          6           0       -0.036091    3.882248    1.224192
     34          1           0       -1.948265    4.796972    1.514483
     35          6           0        0.699053    2.916881    0.544640
     36          1           0        0.591166    1.346993   -0.913898
     37          1           0        0.438347    4.482096    1.992484
     38          6           0        2.134359    2.643222    0.881468
     39          1           0        2.392883    3.033407    1.864438
     40          1           0        2.319263    1.571148    0.881728
     41          6           0        0.526960   -2.915355   -0.547812
     42          1           0        0.633373   -2.834844   -1.627175
     43          1           0        1.157892   -2.153147   -0.091341
     44          6           0        4.510446    2.788056    0.335848
     45          1           0        5.249806    3.344139   -0.236420
     46          1           0        4.640779    2.952380    1.401958
     47          1           0        4.567542    1.719481    0.123024
     48          6           0        3.088124    4.745809    0.035943
     49          1           0        2.083387    5.076067   -0.213011
     50          1           0        3.334035    5.037737    1.054079
     51          1           0        3.805961    5.178730   -0.656037
     52          6           0        2.917817    2.863030   -1.489961
     53          1           0        2.886501    1.773883   -1.565145
     54          1           0        1.977701    3.288210   -1.827070
     55          1           0        3.739683    3.258915   -2.082073
     56          6           0        2.601943   -4.149669   -0.338932
     57          1           0        3.038492   -5.137905   -0.207781
     58          1           0        2.830909   -3.745384   -1.325646
     59          1           0        2.971395   -3.467670    0.424037
     60          6           0        0.828459   -4.612119    1.253828
     61          1           0        1.230653   -3.826698    1.892224
     62          1           0       -0.245034   -4.713629    1.381558
     63          1           0        1.324172   -5.555414    1.473329
     64          6           0        0.584836   -5.319099   -1.058475
     65          1           0       -0.497666   -5.346201   -0.962880
     66          1           0        0.865243   -5.085035   -2.082052
     67          1           0        1.007001   -6.278101   -0.767531
     68          7           0        3.152004    3.267607   -0.069115
     69          7           0        1.119268   -4.263106   -0.165256
     70          6           0        2.743054   -0.363175   -0.301128
     71          8           0        1.861134   -0.493423    0.636734
     72          8           0        2.344754   -0.281594   -1.526318
     73          8           0        3.982234   -0.275339   -0.017451
     74          1           0       -3.969857    1.869804   -1.608431
     75          1           0       -5.342178    2.547347   -0.773050
     76          1           0       -6.163755    0.270039    0.223815
     77          1           0       -5.020753   -0.299420   -0.974227
     78          8           0        3.886912   -2.246361   -2.585932
     79          1           0        3.302754   -1.490395   -2.356118
     80          1           0        4.660658   -2.052229   -2.054355
     81          8           0        2.476318   -2.219108    2.497220
     82          1           0        2.293250   -1.510402    1.819433
     83          1           0        3.355049   -2.012944    2.819300
     84          8           0       -0.188660   -0.481219   -2.415778
     85          1           0        0.737414   -0.421919   -2.076118
     86          1           0       -0.721386   -0.589159   -1.627909
     87          8           0        4.185732    0.419444    2.586272
     88          1           0        4.158049    0.093357    1.652072
     89          1           0        3.282589    0.301326    2.881865
 ---------------------------------------------------------------------
 Rotational constants (GHZ):           0.0995698           0.0906445           0.0558063
 Leave Link  202 at Mon Mar 18 19:19:11 2024, MaxMem=  2013265920 cpu:               1.7 elap:               0.2
 (Enter /packages/apps/gaussian/g16/g16/l301.exe)
 Standard basis: 6-311+G(2d,2p) (5D, 7F)
 Ernie: Thresh=  0.10000D-02 Tol=  0.10000D-05 Strict=F.
 There are  1541 symmetry adapted cartesian basis functions of A   symmetry.
 There are  1467 symmetry adapted basis functions of A   symmetry.
  1467 basis functions,  2126 primitive gaussians,  1541 cartesian basis functions
   145 alpha electrons      145 beta electrons
       nuclear repulsion energy      4770.0428532905 Hartrees.
 IExCor= 4639 DFT=T Ex+Corr=wB97XD ExCW=0 ScaHFX=  1.000000
 ScaDFX=  1.000000  1.000000  1.000000  1.000000 ScalE2=  1.000000  1.000000
 IRadAn=      5 IRanWt=     -1 IRanGd=            0 ICorTp=0 IEmpDi=121
 HFx  wShort=  0.000000 wLong=  0.200000 cFull=  0.222036 cShort=  0.000000 cLong=  0.777964
 DFx  wShort=  0.000000 wLong=  0.200000 cFull=  0.000000 cShort=  0.000000 cLong=  1.000000
 NAtoms=   89 NActive=   89 NUniq=   89 SFac= 1.00D+00 NAtFMM=   60 NAOKFM=T Big=T
 Integral buffers will be    131072 words long.
 Raffenetti 2 integral format.
 Two-electron integral symmetry is turned on.
 R6Disp:  Grimme-D2 Dispersion energy=       -0.1012754553 Hartrees.
 Nuclear repulsion after empirical dispersion term =     4769.9415778352 Hartrees.
 Leave Link  301 at Mon Mar 18 19:19:11 2024, MaxMem=  2013265920 cpu:               1.1 elap:               0.3
 (Enter /packages/apps/gaussian/g16/g16/l302.exe)
 NPDir=0 NMtPBC=     1 NCelOv=     1 NCel=       1 NClECP=     1 NCelD=      1
         NCelK=      1 NCelE2=     1 NClLst=     1 CellRange=     0.0.
 One-electron integrals computed using PRISM.
 One-electron integral symmetry used in STVInt
 NBasis=  1467 RedAO= T EigKep=  1.03D-06  NBF=  1467
 NBsUse=  1459 1.00D-06 EigRej=  8.98D-07 NBFU=  1459
 Precomputing XC quadrature grid using
 IXCGrd= 4 IRadAn=           5 IRanWt=          -1 IRanGd=           0 AccXCQ= 0.00D+00.
 Generated NRdTot=       0 NPtTot=           0 NUsed=           0 NTot=          32
 NSgBfM=  1477  1477  1477  1477  1477 MxSgAt=    89 MxSgA2=    89.
 Leave Link  302 at Mon Mar 18 19:19:17 2024, MaxMem=  2013265920 cpu:             108.4 elap:               6.1
 (Enter /packages/apps/gaussian/g16/g16/l303.exe)
 DipDrv:  MaxL=1.
 Leave Link  303 at Mon Mar 18 19:19:18 2024, MaxMem=  2013265920 cpu:               5.8 elap:               0.7
 (Enter /packages/apps/gaussian/g16/g16/l401.exe)
 ExpMin= 4.38D-02 ExpMax= 8.59D+03 ExpMxC= 1.30D+03 IAcc=3 IRadAn=         5 AccDes= 0.00D+00
 Harris functional with IExCor= 4639 and IRadAn=       5 diagonalized for initial guess.
 HarFok:  IExCor= 4639 AccDes= 0.00D+00 IRadAn=         5 IDoV= 1 UseB2=F ITyADJ=14
 ICtDFT=  3500011 ScaDFX=  1.000000  1.000000  1.000000  1.000000
 FoFCou: FMM=F IPFlag=           0 FMFlag=      100000 FMFlg1=        2001
         NFxFlg=           0 DoJE=T BraDBF=F KetDBF=T FulRan=T
         wScrn=  0.000000 ICntrl=       500 IOpCl=  0 I1Cent=   200000004 NGrid=           0
         NMat0=    1 NMatS0=      1 NMatT0=    0 NMatD0=    1 NMtDS0=    0 NMtDT0=    0
 Petite list used in FoFCou.
 Harris En= -1658.63331823550    
 JPrj=0 DoOrth=F DoCkMO=F.
 Leave Link  401 at Mon Mar 18 19:19:28 2024, MaxMem=  2013265920 cpu:             190.7 elap:               9.8
 (Enter /packages/apps/gaussian/g16/g16/l502.exe)
 Integral symmetry usage will be decided dynamically.
 Closed shell SCF:
 Using DIIS extrapolation, IDIIS=  1040.
 NGot=  2013265920 LenX=  2008471575 LenY=  2006095353
 Requested convergence on RMS density matrix=1.00D-08 within 128 cycles.
 Requested convergence on MAX density matrix=1.00D-06.
 Requested convergence on             energy=1.00D-06.
 No special actions if energy rises.
 Fock matrices will be formed incrementally for  20 cycles.

 Cycle   1  Pass 1  IDiag  1:
 FoFJK:  IHMeth= 1 ICntrl=       0 DoSepK=T KAlg= 0 I1Cent=           0 FoldK=F
 IRaf=         1 NMat=       1 IRICut=       1 DoRegI=T DoRafI=F ISym2E= 0 IDoP0=0 IntGTp=1.
 FoFCou: FMM=T IPFlag=           0 FMFlag=      100000 FMFlg1=        2001
         NFxFlg=           0 DoJE=T BraDBF=F KetDBF=F FulRan=T
         wScrn=  0.000000 ICntrl=       500 IOpCl=  0 I1Cent=           0 NGrid=           0
         NMat0=    1 NMatS0=      1 NMatT0=    0 NMatD0=    1 NMtDS0=    0 NMtDT0=    0
 Symmetry not used in FoFCou.
 FMM levels:  10  Number of levels for PrismC:   9
 E= -1733.87226508902    
 DIIS: error= 5.70D-02 at cycle   1 NSaved=   1.
 NSaved= 1 IEnMin= 1 EnMin= -1733.87226508902     IErMin= 1 ErrMin= 5.70D-02
 ErrMax= 5.70D-02  0.00D+00 EMaxC= 1.00D-01 BMatC= 3.70D+00 BMatP= 3.70D+00
 IDIUse=3 WtCom= 4.30D-01 WtEn= 5.70D-01
 Coeff-Com:  0.100D+01
 Coeff-En:   0.100D+01
 Coeff:      0.100D+01
 Gap=     0.343 Goal=   None    Shift=    0.000
 GapD=    0.343 DampG=1.000 DampE=0.500 DampFc=0.5000 IDamp=-1.
 Damping current iteration by 5.00D-01
 RMSDP=6.27D-03 MaxDP=1.37D+00              OVMax= 1.30D-01

 Cycle   2  Pass 1  IDiag  1:
 RMSU=  1.55D-03    CP:  8.54D-01
 E= -1734.14428201653     Delta-E=       -0.272016927512 Rises=F Damp=T
 DIIS: error= 2.64D-02 at cycle   2 NSaved=   2.
 NSaved= 2 IEnMin= 2 EnMin= -1734.14428201653     IErMin= 2 ErrMin= 2.64D-02
 ErrMax= 2.64D-02  0.00D+00 EMaxC= 1.00D-01 BMatC= 7.68D-01 BMatP= 3.70D+00
 IDIUse=3 WtCom= 7.36D-01 WtEn= 2.64D-01
 Coeff-Com: -0.588D+00 0.159D+01
 Coeff-En:   0.000D+00 0.100D+01
 Coeff:     -0.433D+00 0.143D+01
 Gap=     0.324 Goal=   None    Shift=    0.000
 RMSDP=4.10D-03 MaxDP=8.98D-01 DE=-2.72D-01 OVMax= 1.06D-01

 Cycle   3  Pass 1  IDiag  1:
 RMSU=  1.37D-03    CP:  6.57D-01  1.75D+00
 E= -1734.31453503282     Delta-E=       -0.170253016285 Rises=F Damp=F
 DIIS: error= 9.32D-03 at cycle   3 NSaved=   3.
 NSaved= 3 IEnMin= 3 EnMin= -1734.31453503282     IErMin= 3 ErrMin= 9.32D-03
 ErrMax= 9.32D-03  0.00D+00 EMaxC= 1.00D-01 BMatC= 1.71D-01 BMatP= 7.68D-01
 IDIUse=3 WtCom= 9.07D-01 WtEn= 9.32D-02
 Coeff-Com: -0.342D+00 0.733D+00 0.610D+00
 Coeff-En:   0.000D+00 0.000D+00 0.100D+01
 Coeff:     -0.310D+00 0.664D+00 0.646D+00
 Gap=     0.296 Goal=   None    Shift=    0.000
 RMSDP=6.23D-04 MaxDP=1.02D-01 DE=-1.70D-01 OVMax= 4.69D-02

 Cycle   4  Pass 1  IDiag  1:
 RMSU=  4.41D-04    CP:  6.56D-01  1.95D+00  7.77D-01
 E= -1734.44782621581     Delta-E=       -0.133291182989 Rises=F Damp=F
 DIIS: error= 1.36D-03 at cycle   4 NSaved=   4.
 NSaved= 4 IEnMin= 4 EnMin= -1734.44782621581     IErMin= 4 ErrMin= 1.36D-03
 ErrMax= 1.36D-03  0.00D+00 EMaxC= 1.00D-01 BMatC= 4.39D-03 BMatP= 1.71D-01
 IDIUse=3 WtCom= 9.86D-01 WtEn= 1.36D-02
 Coeff-Com: -0.944D-01 0.202D+00 0.256D+00 0.637D+00
 Coeff-En:   0.000D+00 0.000D+00 0.000D+00 0.100D+01
 Coeff:     -0.931D-01 0.199D+00 0.252D+00 0.642D+00
 Gap=     0.298 Goal=   None    Shift=    0.000
 RMSDP=1.52D-04 MaxDP=2.58D-02 DE=-1.33D-01 OVMax= 7.01D-03

 Cycle   5  Pass 1  IDiag  1:
 RMSU=  1.17D-04    CP:  6.54D-01  1.96D+00  8.39D-01  9.59D-01
 E= -1734.45127541875     Delta-E=       -0.003449202938 Rises=F Damp=F
 DIIS: error= 1.02D-04 at cycle   5 NSaved=   5.
 NSaved= 5 IEnMin= 5 EnMin= -1734.45127541875     IErMin= 5 ErrMin= 1.02D-04
 ErrMax= 1.02D-04  0.00D+00 EMaxC= 1.00D-01 BMatC= 1.15D-04 BMatP= 4.39D-03
 IDIUse=3 WtCom= 9.99D-01 WtEn= 1.02D-03
 Coeff-Com:  0.171D-01-0.366D-01-0.129D-02 0.197D+00 0.823D+00
 Coeff-En:   0.000D+00 0.000D+00 0.000D+00 0.000D+00 0.100D+01
 Coeff:      0.171D-01-0.366D-01-0.129D-02 0.197D+00 0.824D+00
 Gap=     0.297 Goal=   None    Shift=    0.000
 RMSDP=7.07D-05 MaxDP=9.79D-03 DE=-3.45D-03 OVMax= 2.66D-03

 Cycle   6  Pass 1  IDiag  1:
 RMSU=  3.36D-05    CP:  6.53D-01  1.98D+00  8.61D-01  1.05D+00  1.19D+00
 E= -1734.45137161749     Delta-E=       -0.000096198742 Rises=F Damp=F
 DIIS: error= 6.57D-05 at cycle   6 NSaved=   6.
 NSaved= 6 IEnMin= 6 EnMin= -1734.45137161749     IErMin= 6 ErrMin= 6.57D-05
 ErrMax= 6.57D-05  0.00D+00 EMaxC= 1.00D-01 BMatC= 2.43D-05 BMatP= 1.15D-04
 IDIUse=1 WtCom= 1.00D+00 WtEn= 0.00D+00
 Coeff-Com:  0.150D-01-0.322D-01-0.188D-01 0.477D-01 0.403D+00 0.586D+00
 Coeff:      0.150D-01-0.322D-01-0.188D-01 0.477D-01 0.403D+00 0.586D+00
 Gap=     0.297 Goal=   None    Shift=    0.000
 RMSDP=2.24D-05 MaxDP=3.93D-03 DE=-9.62D-05 OVMax= 1.04D-03

 Cycle   7  Pass 1  IDiag  1:
 RMSU=  1.06D-05    CP:  6.53D-01  1.98D+00  8.68D-01  1.08D+00  1.29D+00
                    CP:  9.93D-01
 E= -1734.45139376498     Delta-E=       -0.000022147495 Rises=F Damp=F
 DIIS: error= 1.28D-05 at cycle   7 NSaved=   7.
 NSaved= 7 IEnMin= 7 EnMin= -1734.45139376498     IErMin= 7 ErrMin= 1.28D-05
 ErrMax= 1.28D-05  0.00D+00 EMaxC= 1.00D-01 BMatC= 1.12D-06 BMatP= 2.43D-05
 IDIUse=1 WtCom= 1.00D+00 WtEn= 0.00D+00
 Coeff-Com:  0.267D-02-0.568D-02-0.507D-02-0.534D-02 0.322D-01 0.183D+00
 Coeff-Com:  0.799D+00
 Coeff:      0.267D-02-0.568D-02-0.507D-02-0.534D-02 0.322D-01 0.183D+00
 Coeff:      0.799D+00
 Gap=     0.297 Goal=   None    Shift=    0.000
 RMSDP=8.02D-06 MaxDP=1.67D-03 DE=-2.21D-05 OVMax= 2.41D-04

 Cycle   8  Pass 1  IDiag  1:
 RMSU=  4.19D-06    CP:  6.53D-01  1.99D+00  8.70D-01  1.09D+00  1.31D+00
                    CP:  1.03D+00  1.03D+00
 E= -1734.45139490600     Delta-E=       -0.000001141015 Rises=F Damp=F
 DIIS: error= 6.76D-06 at cycle   8 NSaved=   8.
 NSaved= 8 IEnMin= 8 EnMin= -1734.45139490600     IErMin= 8 ErrMin= 6.76D-06
 ErrMax= 6.76D-06  0.00D+00 EMaxC= 1.00D-01 BMatC= 1.76D-07 BMatP= 1.12D-06
 IDIUse=1 WtCom= 1.00D+00 WtEn= 0.00D+00
 Coeff-Com: -0.429D-04 0.123D-03-0.646D-03-0.622D-02-0.202D-01 0.274D-01
 Coeff-Com:  0.338D+00 0.662D+00
 Coeff:     -0.429D-04 0.123D-03-0.646D-03-0.622D-02-0.202D-01 0.274D-01
 Coeff:      0.338D+00 0.662D+00
 Gap=     0.297 Goal=   None    Shift=    0.000
 RMSDP=2.66D-06 MaxDP=3.95D-04 DE=-1.14D-06 OVMax= 1.13D-04

 Cycle   9  Pass 1  IDiag  1:
 RMSU=  1.01D-06    CP:  6.53D-01  1.99D+00  8.70D-01  1.09D+00  1.32D+00
                    CP:  1.07D+00  1.12D+00  9.60D-01
 E= -1734.45139505684     Delta-E=       -0.000000150839 Rises=F Damp=F
 DIIS: error= 2.52D-06 at cycle   9 NSaved=   9.
 NSaved= 9 IEnMin= 9 EnMin= -1734.45139505684     IErMin= 9 ErrMin= 2.52D-06
 ErrMax= 2.52D-06  0.00D+00 EMaxC= 1.00D-01 BMatC= 2.72D-08 BMatP= 1.76D-07
 IDIUse=1 WtCom= 1.00D+00 WtEn= 0.00D+00
 Coeff-Com: -0.378D-03 0.816D-03 0.403D-03-0.217D-02-0.138D-01-0.117D-01
 Coeff-Com:  0.487D-01 0.302D+00 0.676D+00
 Coeff:     -0.378D-03 0.816D-03 0.403D-03-0.217D-02-0.138D-01-0.117D-01
 Coeff:      0.487D-01 0.302D+00 0.676D+00
 Gap=     0.297 Goal=   None    Shift=    0.000
 RMSDP=1.07D-06 MaxDP=1.51D-04 DE=-1.51D-07 OVMax= 4.32D-05

 Cycle  10  Pass 1  IDiag  1:
 RMSU=  4.29D-07    CP:  6.53D-01  1.99D+00  8.71D-01  1.09D+00  1.33D+00
                    CP:  1.08D+00  1.15D+00  1.04D+00  1.11D+00
 E= -1734.45139508551     Delta-E=       -0.000000028676 Rises=F Damp=F
 DIIS: error= 6.01D-07 at cycle  10 NSaved=  10.
 NSaved=10 IEnMin=10 EnMin= -1734.45139508551     IErMin=10 ErrMin= 6.01D-07
 ErrMax= 6.01D-07  0.00D+00 EMaxC= 1.00D-01 BMatC= 2.30D-09 BMatP= 2.72D-08
[...]
 371,0.00001701,0.00042719,-0.00070414,-0.01042492,0.00041465,0.0012920
 2,0.00254543,-0.00087993,-0.00042115,0.00106310,-0.01186226,0.00101947
 ,0.00721812,-0.00000534,0.00000219,-0.00000473,0.00001311,-0.00000063,
 0.00000115,0.00001298,-0.00000866,0.00000108,-0.00000489,0.00000189,-0
 .00000202,-0.00022251,0.00027418,0.00019008,0.00015935,-0.00025786,-0.
 00022963,0.00017657,-0.00011022,-0.00002101,-0.00022149,0.00095782,-0.
 00071206,-0.00111474,-0.00232119,0.00087290,0.00062683,-0.00029877,0.0
 0035400,0.00012977,-0.00000046,0.00011655,-0.00014772,-0.00000696,-0.0
 0015692,-0.00006962,-0.00000530,-0.00002723,-0.05350870,-0.02125065,-0
 .03586714,0.07156300,0.00001869,-0.00002480,-0.00000255,-0.00003189,0.
 00000992,0.00002797,-0.00001015,-0.00000779,0.00000598,0.00001959,0.00
 000029,-0.00000327,-0.00000841,0.00000345,-0.00000288,0.00002319,0.000
 02363,-0.00000388,0.00000706,-0.00000297,-0.00001115,-0.00000930,-0.00
 000792,0.00000447,0.00000714,-0.00000492,-0.00000769,0.00000676,0.0000
 3429,-0.00000201,-0.00000868,0.00002867,0.00000308,0.00004739,0.000019
 74,-0.00002335,-0.00000917,-0.00000247,-0.00000362,-0.00004645,-0.0000
 1413,0.00000876,0.00000299,-0.00001868,0.00000475,0.00000883,0.0000002
 9,0.00000055,-0.00001827,0.00001460,-0.00001450,-0.00001640,0.00001914
 ,0.00000583,0.00003935,-0.00003124,-0.00002147,0.00002940,0.00001123,0
 .00005778,-0.00000737,-0.00002193,-0.00004223,0.00001215,0.00000341,0.
 00000734,-0.00000492,-0.00001889,-0.00003449,0.00001517,-0.00000126,-0
 .00002360,-0.00001451,0.00003173,0.00002604,-0.00001084,0.00000053,-0.
 00001081,-0.00007867,0.00003178,0.00004201,0.00000703,0.00002323,0.000
 04650,-0.00001813,-0.00006802,-0.00001187,-0.00008706,-0.00005851,-0.0
 0004089,-0.00012402,0.00013858,0.00009964,-0.00005518,0.00001906,-0.00
 001691,-0.00010369,-0.00008186,-0.00012588,-0.00002799,0.00000845,0.00
 000231,0.00016021,0.00030086,-0.00001885,-0.00007467,0.00019051,0.0000
 3186,0.00002720,-0.00003269,-0.00004056,0.00006564,-0.00057657,-0.0002
 2407,0.00010506,-0.00032679,-0.00012228,0.00136408,0.00031144,0.001021
 32,-0.00010326,0.00011012,0.00000898,-0.00001284,-0.00001910,-0.000017
 98,-0.00011740,-0.00016329,-0.00006510,0.00039180,-0.00132568,-0.00002
 493,-0.00013597,0.00053572,-0.00028535,-0.00014619,-0.00102934,-0.0002
 3250,-0.00035192,-0.00035279,0.00313245,-0.00016141,-0.00016397,-0.000
 14481,-0.00003089,0.00010442,-0.00000114,0.00002814,-0.00006948,-0.000
 03184,0.00002314,0.00001366,0.00001477,-0.00000142,0.00015289,0.000428
 51,0.00000455,0.00059106,0.00000023,-0.00003166,-0.00003658,-0.0001098
 0,-0.00000913,-0.00002721,-0.00001207,-0.00012022,-0.00009968,-0.00008
 342,0.00003652,0.00004558,0.00000689,-0.00000917,-0.00004788,-0.000002
 32,-0.00011331,-0.00018773,-0.00003468,0.00002272,-0.00000932,0.000043
 32,-0.00013957,-0.00013399,-0.00005391,0.00003049,0.00003057,0.0000132
 0,-0.00000903,0.00000130,0.00000916,0.00000803,-0.00006817,-0.00005031
 ,0.00001807,0.00002072,0.00000737,-0.00001134,-0.00000315,-0.00000413,
 -0.00000621,0.00000072,-0.00000062,-0.00019370,0.00023928,-0.00014373,
 0.00012760,0.00006729,0.00004302,-0.00863554,-0.00079783,-0.00091447,0
 .00274313,-0.00132956,-0.00145610,0.00319208,0.00072177,0.00256254,0.0
 0432404,-0.00937345,0.00626100,0.00000495,-0.00000270,-0.00000382,-0.0
 0001353,-0.00001322,0.00000056,0.00000930,-0.00002233,0.00000123,-0.00
 000834,0.00000015,-0.00001028,-0.00007242,0.00020401,0.00037017,0.0000
 3509,-0.00019379,-0.00028117,0.00012058,-0.00012854,-0.00026270,0.0012
 0585,-0.00002724,-0.00142313,-0.00208976,-0.00035236,0.00040691,-0.000
 62696,-0.00069940,0.00228935,0.00063149,-0.00018556,0.00015626,-0.0008
 4791,0.00009933,-0.00027499,-0.00004966,0.00008284,0.00000828,-0.00515
 537,-0.06311230,-0.12474231,0.00732600,0.07401725,0.00001821,-0.000029
 81,-0.00000823,-0.00004067,0.00000379,0.00006478,-0.00001140,0.0000092
 4,0.00000396,0.00002962,-0.00000438,-0.00000161,-0.00001284,0.00000133
 ,-0.00000733,0.00002219,0.00001565,-0.00001052,0.00001231,-0.00001152,
 -0.00002775,-0.00003099,0.00001648,0.00002734,0.00002229,-0.00001662,-
 0.00002538,0.00000874,0.00000972,0.00002393,-0.00000906,0.00000439,0.0
 0002110,-0.00001899,-0.00000773,-0.00000670,0.00002443,-0.00001624,-0.
 00001840,0.00000067,0.00001126,0.00001117,-0.00000969,-0.00000419,-0.0
 0000117,-0.00000257,-0.00000089,-0.00001446,0.00001596,-0.00000128,0.0
 0000397,-0.00000071,0.00002535,0.00001665,0.00003928,-0.00003366,-0.00
 006201,-0.00000053,0.00004621,0.00003959,0.00000913,-0.00002834,-0.000
 10480,0.00001341,-0.00001148,0.00001082,0.00013266,0.00009363,-0.00003
 196,0.00005472,-0.00003335,-0.00002129,-0.00012506,0.00019677,0.000003
 92,-0.00003408,-0.00004027,-0.00001791,-0.00004720,-0.00007804,0.00023
 265,-0.00002614,0.00003528,0.00002011,0.00003996,-0.00020847,-0.000121
 85,0.00005777,-0.00007893,-0.00008754,-0.00014611,0.00024913,0.0001634
 3,-0.00009426,0.00004676,0.00001309,-0.00000049,0.00006165,-0.00002292
 ,0.00001517,-0.00002844,-0.00000255,0.00020409,0.00002522,-0.00031899,
 -0.00033495,0.00033931,0.00008646,-0.00000640,-0.00011933,-0.00002934,
 -0.00033966,0.00003202,0.00041336,0.00023980,-0.00096494,-0.00012460,-
 0.00036900,0.00157262,0.00120724,0.00010083,0.00009382,0.00024921,-0.0
 0010556,-0.00013943,-0.00006677,-0.00043338,-0.00091553,-0.00009795,0.
 00009408,0.00004226,0.00035346,-0.00002434,-0.00019298,-0.00034040,-0.
 00002034,-0.00112963,0.00009069,0.00102249,0.00469467,-0.00060704,0.00
 018262,0.00013283,0.00003354,0.00000326,-0.00005291,0.00000956,-0.0000
 0521,-0.00011479,-0.00004456,0.00002608,0.00004170,-0.00001480,0.00008
 883,0.00032617,0.00037271,-0.00010520,0.00117332,-0.00015841,0.0000014
 2,-0.00017410,-0.00009089,-0.00004821,-0.00004246,-0.00008885,-0.00006
 706,-0.00002062,-0.00014735,0.00005433,0.00014337,0.00000461,-0.000227
 32,-0.00043580,0.00005530,-0.00008127,-0.00019946,0.00050958,-0.000104
 48,-0.00007992,0.00030500,0.00029506,0.00028441,0.00024057,0.00000415,
 -0.00003758,-0.00007623,-0.00000435,0.00002901,-0.00002776,-0.00002372
 ,0.00001441,-0.00010503,0.00002124,-0.00000539,0.00001686,-0.00001966,
 -0.00004352,-0.00004845,-0.00001617,0.00005484,0.00001693,-0.00021678,
 -0.00022540,-0.00071094,0.00019343,0.00018336,-0.00014532,-0.03771807,
 -0.00234834,-0.00032429,0.01034174,0.00199135,-0.01070645,0.01104759,-
 0.00087803,0.00803900,0.01953331,0.00624377,0.01371705,-0.00000933,0.0
 0000034,-0.00002902,0.00001928,-0.00000661,-0.00000220,0.00002677,-0.0
 0002143,0.00000192,-0.00001634,-0.00000184,-0.00002117,-0.00039988,0.0
 0156752,0.00104442,0.00047315,-0.00137310,-0.00134691,0.00055753,-0.00
 079371,-0.00063299,-0.00217809,-0.00146813,-0.00404018,0.00186339,-0.0
 0185145,0.00546343,0.00063940,0.00350964,0.00019943,0.00213154,0.00012
 401,0.00051377,-0.00290499,-0.00024635,-0.00091351,-0.00016673,-0.0000
 3566,0.00007100,0.00980835,-0.11170136,-0.35105868,-0.01118372,0.10811
 677,0.35187728,0.00000341,-0.00000569,0.00000008,-0.00000819,-0.000000
 49,0.00000652,-0.00000254,0.00000195,-0.00000040,0.00000542,-0.0000007
 2,-0.00000100,-0.00000111,0.00000190,0.00000236,-0.00000044,0.00000012
 ,-0.00000339,-0.00000142,-0.00000072,0.00000189,-0.00000667,0.00000526
 ,-0.00000075,-0.00000473,0.00000137,0.00000192,0.00000444,-0.00000462,
 -0.00000667,0.00000307,-0.00000135,-0.00000131,-0.00000917,0.00000002,
 0.00000359,0.00000187,-0.00000013,-0.00000108,0.00000811,0.00000338,-0
 .00000371,-0.00000263,-0.00000050,-0.00000180,-0.00000164,0.00000162,0
 .00000053,0.00000658,-0.00000305,0.00000433,-0.00002111,0.00000342,-0.
 00000724,0.00000567,0.00000794,0.00001565,0.00003371,0.00000945,0.0000
 0247,0.00000602,0.00000823,0.00001687,0.00000263,0.00000080,0.00000551
 ,-0.00007736,0.00001132,-0.00003842,-0.00002812,-0.00000389,0.00000623
 ,0.00003742,0.00001007,-0.00000454,0.00000490,0.00000145,0.00000911,-0
 .00001395,-0.00008837,-0.00002897,-0.00001709,0.00000838,-0.00000693,-
 0.00000355,-0.00001641,-0.00000110,-0.00001515,-0.00000368,0.00001402,
 -0.00002846,-0.00002301,-0.00000881,0.00000106,0.00000240,-0.00000201,
 -0.00002731,0.00000837,0.00004158,0.00000299,0.00000195,-0.00000475,-0
 .00001512,0.00001303,-0.00001541,0.00000943,0.00000646,-0.00002896,0.0
 0000963,0.00002191,-0.00001260,-0.00011943,0.00022686,-0.00020910,0.00
 011001,0.00000425,-0.00001271,0.00014683,0.00040219,-0.00045335,0.0000
 5845,-0.00002475,0.00000930,-0.00000281,0.00001264,0.00000550,-0.00004
 086,-0.00010648,-0.00004177,0.00019712,0.00002489,0.00000471,-0.000030
 22,0.00006859,-0.00008521,-0.00005711,-0.00014525,0.00003546,-0.000026
 20,-0.00000310,0.00012563,-0.00005692,0.00000104,0.00004232,-0.0000009
 6,0.00002007,-0.00001344,0.00001583,-0.00000773,-0.00000404,-0.0000049
 2,-0.00002128,0.00000807,-0.00005016,-0.00001237,0.00001526,0.00002856
 ,0.00001996,0.00000292,-0.00000217,0.00001128,-0.00001977,-0.00000614,
 -0.00000820,0.00001961,0.00002835,0.00001094,0.00000644,-0.00000366,0.
 00000916,0.00000382,0.00000544,0.00000200,-0.00000478,0.00002398,0.000
 00054,0.00000410,-0.00001533,-0.00002090,0.00000461,0.00004181,0.00001
 734,0.00001417,-0.00000568,-0.00001615,-0.00000531,-0.00000261,0.00001
 033,0.00000145,-0.00000710,0.00000645,-0.00001217,-0.00000131,-0.00000
 919,0.00000048,0.00000277,-0.00000304,-0.00000202,-0.00000112,0.000007
 97,0.00000095,-0.00000834,-0.00011880,0.00004317,-0.00002425,0.0000216
 3,0.00000238,0.00282609,0.00035917,-0.00042484,-0.00206382,0.00021073,
 0.00089161,-0.00057449,-0.00011824,0.00021446,-0.00137258,-0.00040553,
 -0.00181488,-0.00000242,0.00000088,0.00000084,0.00000811,-0.00000162,0
 .00000210,0.00000783,-0.00000253,0.00000158,-0.00000030,0.00000222,0.0
 0000136,-0.00005673,0.00002675,-0.00000618,0.00006229,-0.00004596,-0.0
 0001097,0.00000052,0.00001045,0.00002202,-0.00150302,-0.00016731,-0.00
 005257,0.00076357,-0.00160756,-0.00042059,0.00048015,0.00133264,0.0000
 3888,-0.00003153,0.00000667,0.00002403,0.00003780,-0.00000042,-0.00001
 342,-0.00000850,-0.00000413,-0.00001462,-0.48313148,-0.05862928,0.1699
 2940,-0.00517210,-0.00228057,-0.00174926,0.48967818,0.00002045,-0.0000
 2482,-0.00000268,-0.00003134,0.00001444,0.00002369,-0.00001097,-0.0000
 1321,0.00000708,0.00001858,0.00000156,-0.00000352,-0.00000775,0.000003
 91,-0.00000199,0.00002457,0.00002931,-0.00000491,0.00000611,-0.0000002
 5,-0.00000812,-0.00000236,-0.00001353,0.00000475,0.00000625,-0.0000034
 7,-0.00000556,0.00000647,0.00004402,-0.00000670,-0.00001068,0.00003365
 ,-0.00000532,0.00006595,0.00002014,-0.00002203,-0.00001450,0.00000082,
 -0.00000170,-0.00005768,-0.00002163,0.00000805,0.00000492,-0.00002025,
 0.00000916,0.00001085,-0.00000156,0.00000222,-0.00002626,0.00001949,-0
 .00001938,-0.00002090,0.00001470,-0.00000351,0.00004314,-0.00002832,-0
 .00000696,0.00004550,0.00000846,0.00009384,-0.00001653,-0.00001847,-0.
 00001766,0.00001220,0.00000784,0.00000717,-0.00008126,-0.00007310,-0.0
 0006277,0.00000427,0.00001472,-0.00002845,0.00003123,-0.00002158,0.000
 03406,-0.00000082,0.00001484,-0.00000546,-0.00012624,0.00008238,-0.000
 03910,0.00002132,-0.00000289,0.00004684,-0.00005727,-0.00005090,-0.000
 00647,-0.00006901,-0.00005676,-0.00005810,-0.00014428,0.00014042,0.000
 08012,-0.00004379,0.00000871,-0.00002486,-0.00003530,-0.00001644,-0.00
 009641,-0.00002711,0.00001156,0.00000930,0.00025417,0.00018762,-0.0002
 5721,-0.00001659,0.00011278,0.00001419,0.00002299,-0.00008370,-0.00002
 481,-0.00004082,-0.00034561,0.00054195,0.00012020,-0.00092024,-0.00008
 809,0.00049341,0.00058164,0.00120955,-0.00016882,0.00010547,-0.0000509
 7,0.00002985,0.00002907,0.00000923,-0.00001460,0.00002564,-0.00010165,
 -0.00008663,-0.00012567,0.00026172,0.00001330,-0.00002962,-0.00005135,
 -0.00027418,0.00003531,0.00011928,-0.00007575,0.00006728,-0.00006935,0
 .00015833,-0.00007650,-0.00003909,-0.00000247,-0.00002168,0.00000863,-
 0.00003953,-0.00005453,-0.00000501,0.00001984,0.00006391,-0.00003485,0
 .00017646,0.00009359,0.00016361,0.00000525,0.00019512,0.00002275,-0.00
 000399,-0.00000915,-0.00000188,-0.00000037,-0.00000270,-0.00008859,-0.
 00009273,-0.00007826,0.00006115,0.00002996,0.00002071,0.00000224,0.000
 07297,0.00008867,-0.00000085,0.00005418,-0.00009754,-0.00028808,0.0001
 0694,0.00003075,-0.00010358,-0.00039106,-0.00038018,-0.00020315,0.0000
 4149,0.00006830,0.00006794,-0.00000539,0.00000684,0.00002803,-0.000017
 95,-0.00009726,-0.00001043,0.00000890,0.00002058,-0.00000410,-0.000002
 46,0.00001178,0.00002056,0.00000202,-0.00001378,-0.00000916,-0.0002024
 9,0.00002414,-0.00026853,0.00006696,0.00000902,0.00007524,0.00151936,0
 .00044979,-0.00137820,-0.00016175,-0.00205024,0.00181910,-0.00025432,-
 0.00023833,0.00063682,-0.00122999,-0.00087261,-0.00050289,0.00000927,-
 0.00000416,0.00000173,-0.00002306,-0.00001452,0.00000170,0.00000497,-0
 .00002435,0.00000184,-0.00000660,-0.00000059,-0.00000854,-0.00006199,-
 0.00012077,0.00010846,0.00000242,0.00006127,-0.00001641,0.00002844,0.0
 0005179,-0.00003493,0.00104394,0.00263854,0.00268196,-0.00201543,-0.00
 038311,-0.00408458,0.00145802,-0.00430854,-0.00054664,0.00006338,-0.00
 023462,0.00001894,-0.00007777,0.00010065,-0.00004608,-0.00001806,0.000
 12309,-0.00001661,-0.07535894,-0.01775037,0.01313994,0.01434436,0.0030
 1359,-0.00530994,0.06095457,0.02001790,0.00000343,-0.00000838,-0.00000
 580,-0.00000815,0.00000283,0.00003318,-0.00000288,0.00000746,0.0000008
 2,0.00001088,-0.00000257,0.00000048,-0.00000415,-0.00000030,-0.0000028
 4,0.00000800,-0.00000249,-0.00001092,0.00000318,-0.00000513,-0.0000109
 5,-0.00001599,0.00001440,0.00001986,0.00000851,-0.00000772,-0.00000983
 ,0.00000309,-0.00000972,0.00001005,0.00000445,-0.00001761,0.00000042,-
 0.00004004,-0.00001321,0.00001937,0.00001840,-0.00000671,-0.00000662,0
 .00003213,0.00001315,-0.00000335,-0.00000720,0.00000607,-0.00000427,-0
 .00000546,0.00000125,-0.00000613,0.00001873,-0.00000990,0.00001276,0.0
 0001027,0.00000509,-0.00000195,0.00002132,-0.00001044,-0.00001657,-0.0
 0000231,0.00004437,0.00003841,0.00000117,-0.00001844,-0.00003676,0.000
 00593,-0.00000477,0.00000288,0.00002112,0.00002054,-0.00004530,0.00002
 306,-0.00001991,0.00000036,-0.00004432,0.00006704,0.00001461,-0.000007
 43,-0.00000829,-0.00000155,-0.00006380,-0.00004401,0.00009568,-0.00000
 793,-0.00000079,-0.00003019,0.00002173,-0.00004046,-0.00003122,0.00009
 887,0.00000023,-0.00001852,0.00002228,0.00000174,0.00003415,0.00000135
 ,0.00000888,0.00001050,0.00008474,0.00010334,0.00009006,0.00003492,-0.
 00002223,-0.00000186,-0.00017086,-0.00025592,-0.00000336,-0.00006295,0
 .00003056,-0.00005875,-0.00003326,-0.00003928,0.00001029,0.00007808,0.
 00062439,0.00028580,-0.00007772,0.00009594,0.00008473,-0.00049256,0.00
 072220,-0.00121533,0.00006801,0.00008902,0.00007401,-0.00000269,-0.000
 00707,-0.00000513,-0.00018816,-0.00047649,-0.00012283,0.00008049,-0.00
 003601,-0.00009714,-0.00001373,-0.00001359,0.00003096,0.00003794,0.000
 05322,-0.00003874,0.00012575,0.00011057,0.00008150,-0.00011199,0.00010
 375,0.00011316,0.00000479,0.00000492,-0.00000392,0.00000330,0.00000417
 ,-0.00000040,-0.00001075,-0.00005827,0.00000840,-0.00004174,-0.0000216
 0,-0.00006449,0.00002712,0.00009958,-0.00002489,0.00000727,-0.00000526
 ,-0.00000074,-0.00001257,-0.00001757,0.00002492,0.00000115,-0.00001488
 ,-0.00003784,0.00000626,0.00003215,0.00000487,-0.00001833,-0.00005265,
 0.00000061,0.00000248,-0.00005162,0.00005674,-0.00001293,-0.00000717,0
 .00007354,-0.00000173,-0.00001025,0.00003091,0.00000819,-0.00000152,0.
 00000129,-0.00000350,0.00001712,-0.00000085,-0.00002231,0.00000772,-0.
 00003852,0.00000366,-0.00000553,0.00000449,-0.00000013,-0.00000912,-0.
 00000959,-0.00000382,0.00002204,0.00000631,0.00010521,-0.00024775,-0.0
 0005127,0.00006114,0.00006365,-0.00000107,0.00267535,0.00017752,-0.003
 97032,0.00008347,0.00180802,0.00299309,-0.00038395,-0.00021619,0.00137
 325,-0.00305502,-0.00065363,-0.00067859,-0.00000733,0.00000241,-0.0000
 1150,0.00001827,0.00000426,0.00000088,0.00001254,-0.00000432,0.0000013
 3,-0.00000536,0.00000045,-0.00000613,-0.00013321,0.00023619,0.00011811
 ,0.00016507,-0.00023897,-0.00016575,0.00005356,-0.00006148,-0.00004430
 ,0.00006541,0.00063080,-0.00197754,-0.00067964,-0.00296782,0.00070320,
 -0.00005038,0.00024245,0.00145210,0.00023832,0.00005510,0.00011149,-0.
 00029750,-0.00002805,-0.00016827,-0.00007412,-0.00003635,-0.00001370,0
 .12171005,0.00132329,-0.08432456,0.04613602,0.00619926,-0.01263551,-0.
 16605851,-0.00726567,0.09798612\\-0.00000070,0.00000055,-0.00000043,0.
 00000109,0.00000258,0.00000564,0.00000023,-0.00000027,0.00000062,0.,-0
 .00000009,0.00000036,-0.00000030,-0.00000002,0.00000154,0.00000172,0.0
 0000220,-0.00000355,-0.00000148,0.00000103,0.00000193,-0.00000269,-0.0
 0000144,0.00000465,0.00000142,-0.00000024,0.00000109,0.00000171,-0.000
 00064,0.00000151,0.00000413,-0.00000444,-0.00000251,0.00000153,0.00000
 119,0.00000112,0.00000106,0.00000164,-0.00000018,-0.00000237,-0.000002
 67,-0.00000064,0.00000004,0.00000008,0.00000053,-0.00000040,0.00000004
 ,0.00000040,-0.00000023,0.00000030,-0.00000043,0.00000041,0.00000324,-
 0.00000129,-0.00000494,0.00000080,-0.00000372,-0.00000138,-0.00000149,
 -0.00000147,0.00000096,-0.00000419,-0.00000233,-0.00000034,0.00000044,
 0.00000052,-0.00000164,-0.00000009,0.00000035,-0.00000015,0.00000112,0
 .00000039,0.00000151,-0.00000243,0.00000985,0.00000002,0.00000071,-0.0
 0000088,-0.00000130,-0.00000048,-0.00000103,-0.00000255,0.00000432,0.0
 0001021,0.00000008,0.00000166,-0.00000266,0.00000057,-0.00000244,0.000
 00055,0.00000266,0.00000116,0.00000160,-0.00000015,-0.00000187,-0.0000
 0161,-0.00000268,0.00000139,-0.00000160,0.00000035,0.00000039,0.000000
 31,-0.00000172,-0.00000069,0.00000215,0.00000143,0.00000108,0.00000029
 ,-0.00000029,0.00000030,0.00000021,-0.00000338,0.00000364,-0.00000413,
 -0.00000283,0.00000248,-0.00000022,0.00000247,0.00000224,-0.00000346,0
 .00000352,-0.00000162,0.00000002,0.00000032,0.00000195,-0.00001158,0.0
 0000579,-0.00000376,-0.00000010,-0.00000281,0.00000120,0.00000004,0.00
 000029,-0.00000060,-0.00000047,0.00000063,-0.00000224,-0.00000241,0.00
 000208,-0.00000195,0.00000123,-0.00000046,0.00000048,0.00000074,0.0000
 0021,0.00000032,-0.00000004,0.00000005,0.00000069,0.00000006,0.0000003
 1,0.00000026,-0.00000080,0.,0.00000153,0.00000173,0.00000125,-0.000001
 82,-0.00000263,-0.00000134,0.00000006,0.00000033,0.00000093,-0.0000002
 1,-0.00000075,-0.00000321,0.00000353,0.00000233,0.00000049,0.00000040,
 0.00000033,-0.00000047,0.00000017,0.00000577,0.00000309,0.00000200,-0.
 00000171,0.00000345,0.00000170,-0.00000061,0.00000076,0.00000458,0.000
 00725,0.00000090,0.00000134,0.00000107,-0.00000056,0.00000066,0.000000
 93,0.00000081,-0.00000012,-0.00000128,0.00000021,-0.00000040,0.0000002
 2,-0.00000033,0.,-0.00000028,0.00000014,-0.00000040,-0.00000023,-0.000
 00225,0.00000089,-0.00000065,-0.00000355,0.00000043,-0.00000025,0.0000
 0951,-0.00000090,-0.00000130,-0.00000200,-0.00000295,-0.00000258,0.000
 01377,-0.00000865,0.00001283,-0.00001672,0.00000137,-0.00001324,0.0000
 0156,-0.00000089,0.00000044,0.00000064,0.00000217,-0.00000001,0.000000
 27,-0.00000013,-0.00000002,-0.00000023,-0.00000082,-0.00000083,0.00000
 996,0.00000051,0.00000309,-0.00000311,0.00000163,0.00000220,-0.0000091
 3,-0.00000097,-0.00000434,-0.00001315,-0.00000688,-0.00001556,0.000008
 48,-0.00000368,0.00001405,-0.00000046,0.00000215,-0.00000533,0.0000031
 7,-0.00000024,-0.00000742,-0.00000912,-0.00000154,0.00000413,0.0000037
 5,-0.00000171,0.00000218,0.00002105,0.00000093,-0.00000418,-0.00000251
 ,0.00000337,-0.00000049,-0.00001785,-0.00000294,0.00000446\\\@


 NOTHING WILL BE ATTEMPTED IF ALL POSSIBLE OBJECTIONS
 MUST FIRST BE OVERCOME.

                               -- THE GOLDEN PRINCIPLE,
                    PAUL DICKSON'S "THE OFFICIAL RULES"
 Job cpu time:      18 days  1 hours 20 minutes  7.5 seconds.
 Elapsed time:       0 days 21 hours 55 minutes  1.4 seconds.
 File lengths (MBytes):  RWF=  31937 Int=      0 D2E=      0 Chk=    171 Scr=      1
 Normal termination of Gaussian 16 at Tue Mar 19 19:51:19 2024.
