 Entering Gaussian System, Link 0=g16
 Input=6water-v4-ofreq.gjf
 Output=6water-v4-ofreq.log
 Initial command:
 /packages/apps/gaussian/g16/g16/l1.exe "/scratch/mdturne9/26scratch/oFreq/Gau-326056.inp" -scrdir="/scratch/mdturne9/26scratch/oFreq/"
 Entering Link 1 = /packages/apps/gaussian/g16/g16/l1.exe PID=    326057.
  
 Copyright (c) 1988,1990,1992,1993,1995,1998,2003,2009,2016,
            Gaussian, Inc.  All Rights Reserved.
  
 This is part of the Gaussian(R) 16 program.  It is based on
 the Gaussian(R) 09 system (copyright 2009, Gaussian, Inc.),
 the Gaussian(R) 03 system (copyright 2003, Gaussian, Inc.),
 the Gaussian(R) 98 system (copyright 1998, Gaussian, Inc.),
 the Gaussian(R) 94 system (copyright 1995, Gaussian, Inc.),
 the Gaussian 92(TM) system (copyright 1992, Gaussian, Inc.),
 the Gaussian 90(TM) system (copyright 1990, Gaussian, Inc.),
 the Gaussian 88(TM) system (copyright 1988, Gaussian, Inc.),
 the Gaussian 86(TM) system (copyright 1986, Carnegie Mellon
 University), and the Gaussian 82(TM) system (copyright 1983,
 Carnegie Mellon University). Gaussian is a federally registered
 trademark of Gaussian, Inc.
  
 This software contains proprietary and confidential information,
 including trade secrets, belonging to Gaussian, Inc.
  
 This software is provided under written license and may be
 used, copied, transmitted, or stored only in accord with that
 written license.
  
 The following legend is applicable only to US Government
 contracts under FAR:
  
                    RESTRICTED RIGHTS LEGEND
  
 Use, reproduction and disclosure by the US Government is
 subject to restrictions as set forth in subparagraphs (a)
 and (c) of the Commercial Computer Software - Restricted
 Rights clause in FAR 52.227-19.
  
 Gaussian, Inc.
 340 Quinnipiac St., Bldg. 40, Wallingford CT 06492
  
  
 ---------------------------------------------------------------
 Warning -- This program may not be used in any manner that
 competes with the business of Gaussian, Inc. or will provide
 assistance to any competitor of Gaussian, Inc.  The licensee
 of this program is prohibited from giving any competitor of
 Gaussian, Inc. access to this program.  By using this program,
 the user acknowledges that Gaussian, Inc. is engaged in the
 business of creating and licensing software in the field of
 computational chemistry and represents and warrants to the
 licensee that it is not a competitor of Gaussian, Inc. and that
 it will not use this program in any manner prohibited above.
 ---------------------------------------------------------------
  

 Cite this work as:
 Gaussian 16, Revision A.03,
 M. J. Frisch, G. W. Trucks, H. B. Schlegel, G. E. Scuseria, 
 M. A. Robb, J. R. Cheeseman, G. Scalmani, V. Barone, 
 G. A. Petersson, H. Nakatsuji, X. Li, M. Caricato, A. V. Marenich, 
 J. Bloino, B. G. Janesko, R. Gomperts, B. Mennucci, H. P. Hratchian, 
 J. V. Ortiz, A. F. Izmaylov, J. L. Sonnenberg, D. Williams-Young, 
 F. Ding, F. Lipparini, F. Egidi, J. Goings, B. Peng, A. Petrone, 
 T. Henderson, D. Ranasinghe, V. G. Zakrzewski, J. Gao, N. Rega, 
 G. Zheng, W. Liang, M. Hada, M. Ehara, K. Toyota, R. Fukuda, 
 J. Hasegawa, M. Ishida, T. Nakajima, Y. Honda, O. Kitao, H. Nakai, 
 T. Vreven, K. Throssell, J. A. Montgomery, Jr., J. E. Peralta, 
 F. Ogliaro, M. J. Bearpark, J. J. Heyd, E. N. Brothers, K. N. Kudin, 
 V. N. Staroverov, T. A. Keith, R. Kobayashi, J. Normand, 
 K. Raghavachari, A. P. Rendell, J. C. Burant, S. S. Iyengar, 
 J. Tomasi, M. Cossi, J. M. Millam, M. Klene, C. Adamo, R. Cammi, 
 J. W. Ochterski, R. L. Martin, K. Morokuma, O. Farkas, 
 J. B. Foresman, and D. J. Fox, Gaussian, Inc., Wallingford CT, 2016.
 
 ******************************************
 Gaussian 16:  ES64L-G16RevA.03 25-Dec-2016
                10-Mar-2024 
 ******************************************
 %oldchk=6water-v3-ofreq.chk
 %nprocshared=20
 Will use up to   20 processors via shared memory.
 %mem=15GB
 %chk=6water-v4-ofreq.chk
 Copying data from "6water-v3-ofreq.chk" to current chk file "6water-v4-ofreq.chk"
 IOpt=  2 FromEx=T IUOpen= 4 IOptOp= 5 NList=   0 IFRang= 0 IUIn= 4 IUOut= 2.
 ---------------------------------------------------
 #p opt=readfc freq wb97xd/6-311+g(2d,2p) guess=read
 ---------------------------------------------------
 1/10=3,18=20,19=15,26=3,38=1/1,3;
 2/9=110,12=2,17=6,18=5,40=1/2;
 3/5=4,6=6,7=212,11=2,25=1,30=1,71=1,74=-58,116=-2/1,2,3;
 4/5=1/1;
 5/5=2,38=6/2;
 6/7=2,8=2,9=2,10=2,28=1/1;
 7//1,2,3,16;
 1/18=20,19=15,26=3/3(2);
 2/9=110/2;
 99//99;
 2/9=110/2;
 3/5=4,6=6,7=212,11=2,25=1,30=1,71=1,74=-58/1,2,3;
 4/5=5,16=3,69=1/1;
 5/5=2,38=5/2;
 7//1,2,3,16;
 1/18=20,19=15,26=3/3(-5);
 2/9=110/2;
 6/7=2,8=2,9=2,10=2,19=2,28=1/1;
 99/9=1/99;
 Leave Link    1 at Sun Mar 10 00:33:58 2024, MaxMem=  2013265920 cpu:              22.4 elap:               1.2
 (Enter /packages/apps/gaussian/g16/g16/l101.exe)
 --------
 Required
 --------
 Symbolic Z-matrix:
 Charge =  0 Multiplicity = 1
 C                     6.24747   2.23816   0.10127 
 C                     5.16329   1.23176   0.49179 
 H                     6.16436   3.15354   0.68759 
 H                     7.23921   1.81488   0.26635 
 H                     6.1759    2.5082   -0.95366 
 C                     5.28262  -0.05832  -0.33687 
 H                     5.31715   0.96418   1.54118 
 C                     4.34528  -1.17376   0.11381 
 H                     4.58247  -1.44264   1.14908 
 H                     3.31529  -0.81197   0.12208 
 C                     4.43923  -2.41543  -0.76648 
 C                     3.66973  -3.62974  -0.22329 
 H                     4.07345  -3.84782   0.76987 
 C                     3.90614  -4.86138  -1.09982 
 H                     3.36817  -5.72798  -0.71482 
 H                     3.57465  -4.68938  -2.12499 
 H                     4.9687   -5.10588  -1.13474 
 C                     3.77002   1.81318   0.37559 
 C                     3.31042   2.32567  -0.83625 
 C                     2.88124   1.75794   1.44335 
 C                     2.00004   2.74313  -0.98132 
 H                     3.9667    2.35073  -1.69663 
 C                     1.56687   2.17665   1.30479 
 H                     3.20432   1.33141   2.38463 
 C                     1.11287   2.67812   0.09051 
 H                     1.64036   3.04404  -1.9562 
 H                     0.87219   2.03483   2.12334 
 C                     2.19575  -3.32872  -0.04206 
 C                     1.33892  -3.19633  -1.13354 
 C                     1.67092  -3.12067   1.2292 
 C                     0.00025  -2.89011  -0.95623 
 H                     1.72183  -3.30817  -2.13961 
 C                     0.33496  -2.8008    1.4111 
 H                     2.32551  -3.1785    2.09 
 C                    -0.52185  -2.70676   0.3209 
 H                    -0.63838  -2.74751  -1.81897 
 H                    -0.0322   -2.56496   2.40167 
 C                    -1.95112  -2.30307   0.50729 
 H                    -2.05976  -1.63925   1.36141 
 H                    -2.337    -1.81059  -0.37629 
 C                    -0.34118   2.97791  -0.10098 
 H                    -0.65984   2.69375  -1.10227 
 H                    -0.93111   2.42608   0.61881 
 C                    -4.26371  -2.83893   0.99413 
 H                    -4.99095  -3.63271   1.14919 
 H                    -4.19325  -2.20956   1.87684 
 H                    -4.54265  -2.22914   0.14065 
 C                    -2.53057  -4.27001   1.91286 
 H                    -1.57072  -4.73625   1.71361 
 H                    -2.44677  -3.6183    2.77902 
 H                    -3.29047  -5.02868   2.08554 
 C                    -3.00782  -4.30745  -0.47858 
 H                    -3.29462  -3.66885  -1.31399 
 H                    -2.03204  -4.75113  -0.65471 
 H                    -3.74875  -5.08579  -0.3089 
 C                    -2.23619   4.48593  -0.13286 
 H                    -2.56048   5.52156  -0.05647 
 H                    -2.48254   4.07899  -1.11066 
 H                    -2.70573   3.87795   0.63682 
 C                    -0.45421   4.87441   1.46833 
 H                    -0.8064    5.89602   1.5928 
 H                     0.61891   4.82224   1.62781 
 H                    -0.97283   4.20686   2.15348 
 C                    -0.0769    5.30831  -0.90131 
 H                     0.99536   5.26263  -0.73554 
 H                    -0.31104   4.95362  -1.90176 
 H                    -0.43577   6.32674  -0.77252 
 N                    -2.92829  -3.45443   0.74049 
 N                    -0.75789   4.43161   0.08161 
 C                    -2.23368   0.59768  -0.4642 
 O                    -1.07617   0.28847  -0.04948 
 O                    -2.48298   0.71085  -1.72243 
 O                    -3.20087   0.80983   0.38526 
 H                     4.07298  -2.17726  -1.77014 
 H                     5.48879  -2.70382  -0.88156 
 H                     6.31735  -0.41031  -0.28425 
 H                     5.09155   0.17677  -1.38878 
 O                    -2.64581   2.32507   2.41073 
 H                    -3.41956   2.35132   2.97185 
 H                    -2.87569   1.69161   1.66163 
 O                    -4.45182   2.59716  -1.66222 
 H                    -3.77326   1.91689  -1.87035 
 H                    -4.52242   2.47921  -0.71244 
 O                     0.09234   0.86602  -2.67981 
 H                     0.34908   0.50824  -1.82393 
 H                    -0.87775   0.80828  -2.5842 
 O                    -5.50544  -0.1799   -0.59395 
 H                    -4.67534   0.1994   -0.21269 
 H                    -5.78635   0.49775  -1.21361 
 O                    -3.75691  -1.70573  -2.26606 
 H                    -4.54396  -1.31721  -1.85565 
 H                    -3.1753   -0.92455  -2.30674 
 O                    -0.77886   0.03204   2.63686 
 H                    -1.37904   0.72757   2.92371 
 H                    -0.82943   0.10801   1.65546 
 
 Add virtual bond connecting atoms H80        and O73        Dist= 3.00D+00.
 Add virtual bond connecting atoms H88        and O73        Dist= 3.22D+00.
 Add virtual bond connecting atoms H95        and O71        Dist= 3.27D+00.
 Add virtual bond connecting atoms H82        and O72        Dist= 3.35D+00.
 Add virtual bond connecting atoms H86        and O72        Dist= 3.45D+00.
 Add virtual bond connecting atoms H91        and O87        Dist= 3.69D+00.
 Add virtual bond connecting atoms H92        and O72        Dist= 3.53D+00.
 Add virtual bond connecting atoms O71        and H43        Dist= 4.24D+00.
 Add virtual bond connecting atoms O90        and H53        Dist= 4.21D+00.
 Add virtual bond connecting atoms H91        and H47        Dist= 4.15D+00.
 Add virtual bond connecting atoms H92        and H40        Dist= 4.32D+00.
 Add virtual bond connecting atoms H95        and H39        Dist= 4.08D+00.
 ITRead=  0  0  0  0  0  0  0  0  0  0  0  0  0  0  0  0  0  0  0  0
 ITRead=  0  0  0  0  0  0  0  0  0  0  0  0  0  0  0  0  0  0  0  0
 ITRead=  0  0  0  0  0  0  0  0  0  0  0  0  0  0  0  0  0  0  0  0
 ITRead=  0  0  0  0  0  0  0  0  0  0  0  0  0  0  0  0  0  0  0  0
 ITRead=  0  0  0  0  0  0  0  0  0  0  0  0  0  0  0
 MicOpt= -1 -1 -1 -1 -1 -1 -1 -1 -1 -1 -1 -1 -1 -1 -1 -1 -1 -1 -1 -1
 MicOpt= -1 -1 -1 -1 -1 -1 -1 -1 -1 -1 -1 -1 -1 -1 -1 -1 -1 -1 -1 -1
 MicOpt= -1 -1 -1 -1 -1 -1 -1 -1 -1 -1 -1 -1 -1 -1 -1 -1 -1 -1 -1 -1
 MicOpt= -1 -1 -1 -1 -1 -1 -1 -1 -1 -1 -1 -1 -1 -1 -1 -1 -1 -1 -1 -1
 MicOpt= -1 -1 -1 -1 -1 -1 -1 -1 -1 -1 -1 -1 -1 -1 -1
 NAtoms=     95 NQM=       95 NQMF=       0 NMMI=      0 NMMIF=      0
                NMic=       0 NMicF=      0.
                    Isotopes and Nuclear Properties:
 (Nuclear quadrupole moments (NQMom) in fm**2, nuclear magnetic moments (NMagM)
  in nuclear magnetons)

  Atom         1           2           3           4           5           6           7           8           9          10
 IAtWgt=          12          12           1           1           1          12           1          12           1           1
 AtmWgt=  12.0000000  12.0000000   1.0078250   1.0078250   1.0078250  12.0000000   1.0078250  12.0000000   1.0078250   1.0078250
 NucSpn=           0           0           1           1           1           0           1           0           1           1
 AtZEff=  -0.0000000  -0.0000000  -0.0000000  -0.0000000  -0.0000000  -0.0000000  -0.0000000  -0.0000000  -0.0000000  -0.0000000
 NQMom=    0.0000000   0.0000000   0.0000000   0.0000000   0.0000000   0.0000000   0.0000000   0.0000000   0.0000000   0.0000000
 NMagM=    0.0000000   0.0000000   2.7928460   2.7928460   2.7928460   0.0000000   2.7928460   0.0000000   2.7928460   2.7928460
 AtZNuc=   6.0000000   6.0000000   1.0000000   1.0000000   1.0000000   6.0000000   1.0000000   6.0000000   1.0000000   1.0000000

  Atom        11          12          13          14          15          16          17          18          19          20
 IAtWgt=          12          12           1          12           1           1           1          12          12          12
 AtmWgt=  12.0000000  12.0000000   1.0078250  12.0000000   1.0078250   1.0078250   1.0078250  12.0000000  12.0000000  12.0000000
 NucSpn=           0           0           1           0           1           1           1           0           0           0
 AtZEff=  -0.0000000  -0.0000000  -0.0000000  -0.0000000  -0.0000000  -0.0000000  -0.0000000  -0.0000000  -0.0000000  -0.0000000
 NQMom=    0.0000000   0.0000000   0.0000000   0.0000000   0.0000000   0.0000000   0.0000000   0.0000000   0.0000000   0.0000000
 NMagM=    0.0000000   0.0000000   2.7928460   0.0000000   2.7928460   2.7928460   2.7928460   0.0000000   0.0000000   0.0000000
 AtZNuc=   6.0000000   6.0000000   1.0000000   6.0000000   1.0000000   1.0000000   1.0000000   6.0000000   6.0000000   6.0000000

  Atom        21          22          23          24          25          26          27          28          29          30
 IAtWgt=          12           1          12           1          12           1           1          12          12          12
 AtmWgt=  12.0000000   1.0078250  12.0000000   1.0078250  12.0000000   1.0078250   1.0078250  12.0000000  12.0000000  12.0000000
 NucSpn=           0           1           0           1           0           1           1           0           0           0
 AtZEff=  -0.0000000  -0.0000000  -0.0000000  -0.0000000  -0.0000000  -0.0000000  -0.0000000  -0.0000000  -0.0000000  -0.0000000
 NQMom=    0.0000000   0.0000000   0.0000000   0.0000000   0.0000000   0.0000000   0.0000000   0.0000000   0.0000000   0.0000000
 NMagM=    0.0000000   2.7928460   0.0000000   2.7928460   0.0000000   2.7928460   2.7928460   0.0000000   0.0000000   0.0000000
 AtZNuc=   6.0000000   1.0000000   6.0000000   1.0000000   6.0000000   1.0000000   1.0000000   6.0000000   6.0000000   6.0000000

  Atom        31          32          33          34          35          36          37          38          39          40
 IAtWgt=          12           1          12           1          12           1           1          12           1           1
 AtmWgt=  12.0000000   1.0078250  12.0000000   1.0078250  12.0000000   1.0078250   1.0078250  12.0000000   1.0078250   1.0078250
 NucSpn=           0           1           0           1           0           1           1           0           1           1
 AtZEff=  -0.0000000  -0.0000000  -0.0000000  -0.0000000  -0.0000000  -0.0000000  -0.0000000  -0.0000000  -0.0000000  -0.0000000
 NQMom=    0.0000000   0.0000000   0.0000000   0.0000000   0.0000000   0.0000000   0.0000000   0.0000000   0.0000000   0.0000000
 NMagM=    0.0000000   2.7928460   0.0000000   2.7928460   0.0000000   2.7928460   2.7928460   0.0000000   2.7928460   2.7928460
 AtZNuc=   6.0000000   1.0000000   6.0000000   1.0000000   6.0000000   1.0000000   1.0000000   6.0000000   1.0000000   1.0000000

  Atom        41          42          43          44          45          46          47          48          49          50
 IAtWgt=          12           1           1          12           1           1           1          12           1           1
 AtmWgt=  12.0000000   1.0078250   1.0078250  12.0000000   1.0078250   1.0078250   1.0078250  12.0000000   1.0078250   1.0078250
 NucSpn=           0           1           1           0           1           1           1           0           1           1
 AtZEff=  -0.0000000  -0.0000000  -0.0000000  -0.0000000  -0.0000000  -0.0000000  -0.0000000  -0.0000000  -0.0000000  -0.0000000
 NQMom=    0.0000000   0.0000000   0.0000000   0.0000000   0.0000000   0.0000000   0.0000000   0.0000000   0.0000000   0.0000000
 NMagM=    0.0000000   2.7928460   2.7928460   0.0000000   2.7928460   2.7928460   2.7928460   0.0000000   2.7928460   2.7928460
 AtZNuc=   6.0000000   1.0000000   1.0000000   6.0000000   1.0000000   1.0000000   1.0000000   6.0000000   1.0000000   1.0000000

  Atom        51          52          53          54          55          56          57          58          59          60
 IAtWgt=           1          12           1           1           1          12           1           1           1          12
 AtmWgt=   1.0078250  12.0000000   1.0078250   1.0078250   1.0078250  12.0000000   1.0078250   1.0078250   1.0078250  12.0000000
 NucSpn=           1           0           1           1           1           0           1           1           1           0
 AtZEff=  -0.0000000  -0.0000000  -0.0000000  -0.0000000  -0.0000000  -0.0000000  -0.0000000  -0.0000000  -0.0000000  -0.0000000
 NQMom=    0.0000000   0.0000000   0.0000000   0.0000000   0.0000000   0.0000000   0.0000000   0.0000000   0.0000000   0.0000000
 NMagM=    2.7928460   0.0000000   2.7928460   2.7928460   2.7928460   0.0000000   2.7928460   2.7928460   2.7928460   0.0000000
 AtZNuc=   1.0000000   6.0000000   1.0000000   1.0000000   1.0000000   6.0000000   1.0000000   1.0000000   1.0000000   6.0000000

  Atom        61          62          63          64          65          66          67          68          69          70
 IAtWgt=           1           1           1          12           1           1           1          14          14          12
 AtmWgt=   1.0078250   1.0078250   1.0078250  12.0000000   1.0078250   1.0078250   1.0078250  14.0030740  14.0030740  12.0000000
 NucSpn=           1           1           1           0           1           1           1           2           2           0
 AtZEff=  -0.0000000  -0.0000000  -0.0000000  -0.0000000  -0.0000000  -0.0000000  -0.0000000  -0.0000000  -0.0000000  -0.0000000
 NQMom=    0.0000000   0.0000000   0.0000000   0.0000000   0.0000000   0.0000000   0.0000000   2.0440000   2.0440000   0.0000000
 NMagM=    2.7928460   2.7928460   2.7928460   0.0000000   2.7928460   2.7928460   2.7928460   0.4037610   0.4037610   0.0000000
 AtZNuc=   1.0000000   1.0000000   1.0000000   6.0000000   1.0000000   1.0000000   1.0000000   7.0000000   7.0000000   6.0000000

  Atom        71          72          73          74          75          76          77          78          79          80
 IAtWgt=          16          16          16           1           1           1           1          16           1           1
 AtmWgt=  15.9949146  15.9949146  15.9949146   1.0078250   1.0078250   1.0078250   1.0078250  15.9949146   1.0078250   1.0078250
 NucSpn=           0           0           0           1           1           1           1           0           1           1
 AtZEff=  -0.0000000  -0.0000000  -0.0000000  -0.0000000  -0.0000000  -0.0000000  -0.0000000  -0.0000000  -0.0000000  -0.0000000
 NQMom=    0.0000000   0.0000000   0.0000000   0.0000000   0.0000000   0.0000000   0.0000000   0.0000000   0.0000000   0.0000000
 NMagM=    0.0000000   0.0000000   0.0000000   2.7928460   2.7928460   2.7928460   2.7928460   0.0000000   2.7928460   2.7928460
 AtZNuc=   8.0000000   8.0000000   8.0000000   1.0000000   1.0000000   1.0000000   1.0000000   8.0000000   1.0000000   1.0000000

  Atom        81          82          83          84          85          86          87          88          89          90
 IAtWgt=          16           1           1          16           1           1          16           1           1          16
 AtmWgt=  15.9949146   1.0078250   1.0078250  15.9949146   1.0078250   1.0078250  15.9949146   1.0078250   1.0078250  15.9949146
 NucSpn=           0           1           1           0           1           1           0           1           1           0
 AtZEff=  -0.0000000  -0.0000000  -0.0000000  -0.0000000  -0.0000000  -0.0000000  -0.0000000  -0.0000000  -0.0000000  -0.0000000
 NQMom=    0.0000000   0.0000000   0.0000000   0.0000000   0.0000000   0.0000000   0.0000000   0.0000000   0.0000000   0.0000000
 NMagM=    0.0000000   2.7928460   2.7928460   0.0000000   2.7928460   2.7928460   0.0000000   2.7928460   2.7928460   0.0000000
 AtZNuc=   8.0000000   1.0000000   1.0000000   8.0000000   1.0000000   1.0000000   8.0000000   1.0000000   1.0000000   8.0000000

  Atom        91          92          93          94          95
 IAtWgt=           1           1          16           1           1
 AtmWgt=   1.0078250   1.0078250  15.9949146   1.0078250   1.0078250
 NucSpn=           1           1           0           1           1
 AtZEff=  -0.0000000  -0.0000000  -0.0000000  -0.0000000  -0.0000000
 NQMom=    0.0000000   0.0000000   0.0000000   0.0000000   0.0000000
 NMagM=    2.7928460   2.7928460   0.0000000   2.7928460   2.7928460
 AtZNuc=   1.0000000   1.0000000   8.0000000   1.0000000   1.0000000
 Leave Link  101 at Sun Mar 10 00:33:58 2024, MaxMem=  2013265920 cpu:               6.0 elap:               0.3
 (Enter /packages/apps/gaussian/g16/g16/l103.exe)

 GradGradGradGradGradGradGradGradGradGradGradGradGradGradGradGradGradGrad
 Berny optimization.
 Initialization pass.
 Force constant matrix read from checkpoint file:
 "6water-v4-ofreq.chk"
 NVar current= 559 chk= 559 common= 559.
                           ----------------------------
                           !    Initial Parameters    !
                           ! (Angstroms and Degrees)  !
 --------------------------                            --------------------------
 ! Name  Definition              Value          Derivative Info.                !
 --------------------------------------------------------------------------------
 ! R1    R(1,2)                  1.53           D2E/DX2 =    0.2829             !
 ! R2    R(1,3)                  1.0902         D2E/DX2 =    0.3412             !
 ! R3    R(1,4)                  1.0909         D2E/DX2 =    0.3398             !
 ! R4    R(1,5)                  1.0913         D2E/DX2 =    0.3396             !
 ! R5    R(2,6)                  1.5379         D2E/DX2 =    0.2691             !
 ! R6    R(2,7)                  1.0938         D2E/DX2 =    0.329              !
 ! R7    R(2,18)                 1.5142         D2E/DX2 =    0.2884             !
 ! R8    R(6,8)                  1.5251         D2E/DX2 =    0.2836             !
 ! R9    R(6,76)                 1.0942         D2E/DX2 =    0.3301             !
 ! R10   R(6,77)                 1.0947         D2E/DX2 =    0.33               !
 ! R11   R(8,9)                  1.0956         D2E/DX2 =    0.3267             !
 ! R12   R(8,10)                 1.0917         D2E/DX2 =    0.3376             !
 ! R13   R(8,11)                 1.5249         D2E/DX2 =    0.2838             !
 ! R14   R(11,12)                1.5368         D2E/DX2 =    0.2716             !
 ! R15   R(11,74)                1.0946         D2E/DX2 =    0.3301             !
 ! R16   R(11,75)                1.0945         D2E/DX2 =    0.3293             !
 ! R17   R(12,13)                1.094          D2E/DX2 =    0.3281             !
 ! R18   R(12,14)                1.5301         D2E/DX2 =    0.283              !
 ! R19   R(12,28)                1.5153         D2E/DX2 =    0.2878             !
 ! R20   R(14,15)                1.0902         D2E/DX2 =    0.3414             !
 ! R21   R(14,16)                1.0911         D2E/DX2 =    0.3401             !
 ! R22   R(14,17)                1.0909         D2E/DX2 =    0.3398             !
 ! R23   R(18,19)                1.3937         D2E/DX2 =    0.3851             !
 ! R24   R(18,20)                1.3904         D2E/DX2 =    0.394              !
 ! R25   R(19,21)                1.3829         D2E/DX2 =    0.4042             !
 ! R26   R(19,22)                1.0824         D2E/DX2 =    0.36               !
 ! R27   R(20,23)                1.3864         D2E/DX2 =    0.3923             !
 ! R28   R(20,24)                1.0827         D2E/DX2 =    0.3591             !
 ! R29   R(21,25)                1.3929         D2E/DX2 =    0.3901             !
 ! R30   R(21,26)                1.0818         D2E/DX2 =    0.3621             !
 ! R31   R(23,25)                1.39           D2E/DX2 =    0.3954             !
 ! R32   R(23,27)                1.0829         D2E/DX2 =    0.3599             !
 ! R33   R(25,41)                1.4969         D2E/DX2 =    0.3094             !
 ! R34   R(28,29)                1.3939         D2E/DX2 =    0.384              !
 ! R35   R(28,30)                1.391          D2E/DX2 =    0.3939             !
 ! R36   R(29,31)                1.3846         D2E/DX2 =    0.3986             !
 ! R37   R(29,32)                1.0823         D2E/DX2 =    0.3606             !
 ! R38   R(30,33)                1.3857         D2E/DX2 =    0.3957             !
 ! R39   R(30,34)                1.083          D2E/DX2 =    0.3583             !
 ! R40   R(31,35)                1.3919         D2E/DX2 =    0.3933             !
 ! R41   R(31,36)                1.0828         D2E/DX2 =    0.3596             !
 ! R42   R(33,35)                1.3898         D2E/DX2 =    0.3964             !
 ! R43   R(33,37)                1.0824         D2E/DX2 =    0.3605             !
 ! R44   R(35,38)                1.4968         D2E/DX2 =    0.3101             !
 ! R45   R(38,39)                1.0872         D2E/DX2 =    0.3186             !
 ! R46   R(38,40)                1.0827         D2E/DX2 =    0.2304             !
 ! R47   R(38,68)                1.528          D2E/DX2 =    0.2185             !
 ! R48   R(39,95)                2.1571         D2E/DX2 =    0.0161             !
 ! R49   R(40,92)                2.2835         D2E/DX2 =    0.0364             !
 ! R50   R(41,42)                1.0885         D2E/DX2 =    0.3454             !
 ! R51   R(41,43)                1.082          D2E/DX2 =    0.3686             !
 ! R52   R(41,69)                1.5232         D2E/DX2 =    0.2599             !
 ! R53   R(43,71)                2.2443         D2E/DX2 =    0.0348             !
 ! R54   R(44,45)                1.0877         D2E/DX2 =    0.3487             !
 ! R55   R(44,46)                1.0864         D2E/DX2 =    0.3527             !
 ! R56   R(44,47)                1.0854         D2E/DX2 =    0.283              !
 ! R57   R(44,68)                1.4922         D2E/DX2 =    0.2672             !
 ! R58   R(47,91)                2.1947         D2E/DX2 =    0.0192             !
 ! R59   R(48,49)                1.0855         D2E/DX2 =    0.3546             !
 ! R60   R(48,50)                1.0872         D2E/DX2 =    0.3506             !
 ! R61   R(48,51)                1.0876         D2E/DX2 =    0.3489             !
 ! R62   R(48,68)                1.4825         D2E/DX2 =    0.3108             !
 ! R63   R(52,53)                1.0899         D2E/DX2 =    0.2689             !
 ! R64   R(52,54)                1.0863         D2E/DX2 =    0.3526             !
 ! R65   R(52,55)                1.0879         D2E/DX2 =    0.348              !
 ! R66   R(52,68)                1.49           D2E/DX2 =    0.2497             !
 ! R67   R(53,90)                2.2302         D2E/DX2 =    0.0176             !
 ! R68   R(56,57)                1.0879         D2E/DX2 =    0.3482             !
 ! R69   R(56,58)                1.0874         D2E/DX2 =    0.3508             !
 ! R70   R(56,59)                1.0874         D2E/DX2 =    0.349              !
 ! R71   R(56,69)                1.4948         D2E/DX2 =    0.2991             !
 ! R72   R(60,61)                1.0878         D2E/DX2 =    0.3483             !
 ! R73   R(60,62)                1.0862         D2E/DX2 =    0.353              !
 ! R74   R(60,63)                1.0881         D2E/DX2 =    0.3479             !
 ! R75   R(60,69)                1.487          D2E/DX2 =    0.3073             !
 ! R76   R(64,65)                1.086          D2E/DX2 =    0.3538             !
 ! R77   R(64,66)                1.087          D2E/DX2 =    0.3512             !
 ! R78   R(64,67)                1.0875         D2E/DX2 =    0.3491             !
 ! R79   R(64,69)                1.4827         D2E/DX2 =    0.3109             !
 ! R80   R(70,71)                1.2678         D2E/DX2 =    0.506              !
 ! R81   R(70,72)                1.2877         D2E/DX2 =    0.4332             !
 ! R82   R(70,73)                1.3046         D2E/DX2 =    0.4579             !
 ! R83   R(71,95)                1.7321         D2E/DX2 =    0.03               !
 ! R84   R(72,82)                1.7724         D2E/DX2 =    0.0254             !
 ! R85   R(72,86)                1.8245         D2E/DX2 =    0.0246             !
 ! R86   R(72,92)                1.8696         D2E/DX2 =    0.0176             !
 ! R87   R(73,80)                1.5851         D2E/DX2 =    0.0391             !
 ! R88   R(73,88)                1.7042         D2E/DX2 =    0.0244             !
 ! R89   R(78,79)                0.9562         D2E/DX2 =    0.5625             !
 ! R90   R(78,80)                1.0076         D2E/DX2 =    0.3926             !
 ! R91   R(81,82)                0.9831         D2E/DX2 =    0.4633             !
 ! R92   R(81,83)                0.9597         D2E/DX2 =    0.5485             !
 ! R93   R(84,85)                0.9625         D2E/DX2 =    0.5302             !
 ! R94   R(84,86)                0.9765         D2E/DX2 =    0.4718             !
 ! R95   R(87,88)                0.9891         D2E/DX2 =    0.3964             !
 ! R96   R(87,89)                0.9603         D2E/DX2 =    0.5425             !
 ! R97   R(87,91)                1.9519         D2E/DX2 =    0.0173             !
 ! R98   R(90,91)                0.9689         D2E/DX2 =    0.4374             !
 ! R99   R(90,92)                0.9748         D2E/DX2 =    0.4001             !
 ! R100  R(93,94)                0.9624         D2E/DX2 =    0.5305             !
 ! R101  R(93,95)                0.9856         D2E/DX2 =    0.4591             !
 ! A1    A(2,1,3)              111.1618         D2E/DX2 =    0.1027             !
 ! A2    A(2,1,4)              110.5102         D2E/DX2 =    0.1035             !
 ! A3    A(2,1,5)              111.2869         D2E/DX2 =    0.1053             !
 ! A4    A(3,1,4)              108.2832         D2E/DX2 =    0.0511             !
 ! A5    A(3,1,5)              107.8851         D2E/DX2 =    0.0518             !
 ! A6    A(4,1,5)              107.5743         D2E/DX2 =    0.0513             !
 ! A7    A(1,2,6)              111.0551         D2E/DX2 =    0.0724             !
 ! A8    A(1,2,7)              107.8248         D2E/DX2 =    0.024              !
 ! A9    A(1,2,18)             112.326          D2E/DX2 =    0.0566             !
 ! A10   A(6,2,7)              107.5062         D2E/DX2 =    0.0245             !
 ! A11   A(6,2,18)             110.6184         D2E/DX2 =    0.0422             !
 ! A12   A(7,2,18)             107.2767         D2E/DX2 =    0.0224             !
 ! A13   A(2,6,8)              113.9918         D2E/DX2 =    0.1053             !
 ! A14   A(2,6,76)             108.4993         D2E/DX2 =    0.0458             !
 ! A15   A(2,6,77)             108.9095         D2E/DX2 =    0.0475             !
 ! A16   A(8,6,76)             109.3727         D2E/DX2 =    0.0454             !
 ! A17   A(8,6,77)             109.4975         D2E/DX2 =    0.0456             !
 ! A18   A(76,6,77)            106.2813         D2E/DX2 =    0.0167             !
 ! A19   A(6,8,9)              109.0065         D2E/DX2 =    0.0478             !
 ! A20   A(6,8,10)             109.8597         D2E/DX2 =    0.0483             !
 ! A21   A(6,8,11)             112.7723         D2E/DX2 =    0.1213             !
 ! A22   A(9,8,10)             106.1658         D2E/DX2 =    0.0177             !
 ! A23   A(9,8,11)             109.4086         D2E/DX2 =    0.047              !
 ! A24   A(10,8,11)            109.411          D2E/DX2 =    0.0488             !
 ! A25   A(8,11,12)            114.1098         D2E/DX2 =    0.1068             !
 ! A26   A(8,11,74)            109.3606         D2E/DX2 =    0.0447             !
 ! A27   A(8,11,75)            109.5307         D2E/DX2 =    0.0464             !
 ! A28   A(12,11,74)           109.1761         D2E/DX2 =    0.0484             !
 ! A29   A(12,11,75)           108.0062         D2E/DX2 =    0.0461             !
 ! A30   A(74,11,75)           106.3655         D2E/DX2 =    0.0167             !
 ! A31   A(11,12,13)           107.0738         D2E/DX2 =    0.0241             !
 ! A32   A(11,12,14)           110.8661         D2E/DX2 =    0.0733             !
 ! A33   A(11,12,28)           111.8622         D2E/DX2 =    0.044              !
 ! A34   A(13,12,14)           107.6119         D2E/DX2 =    0.0239             !
 ! A35   A(13,12,28)           106.8575         D2E/DX2 =    0.0222             !
 ! A36   A(14,12,28)           112.2546         D2E/DX2 =    0.0594             !
 ! A37   A(12,14,15)           111.1794         D2E/DX2 =    0.1025             !
 ! A38   A(12,14,16)           111.3721         D2E/DX2 =    0.1052             !
 ! A39   A(12,14,17)           110.4413         D2E/DX2 =    0.1035             !
 ! A40   A(15,14,16)           107.8897         D2E/DX2 =    0.0519             !
 ! A41   A(15,14,17)           108.2871         D2E/DX2 =    0.051              !
 ! A42   A(16,14,17)           107.5296         D2E/DX2 =    0.0514             !
 ! A43   A(2,18,19)            120.7543         D2E/DX2 =    0.1124             !
 ! A44   A(2,18,20)            120.9308         D2E/DX2 =    0.107              !
 ! A45   A(19,18,20)           118.1364         D2E/DX2 =    0.086              !
 ! A46   A(18,19,21)           120.977          D2E/DX2 =    0.0819             !
 ! A47   A(18,19,22)           119.9823         D2E/DX2 =    0.0835             !
 ! A48   A(21,19,22)           118.9561         D2E/DX2 =    0.0849             !
 ! A49   A(18,20,23)           121.15           D2E/DX2 =    0.0832             !
 ! A50   A(18,20,24)           119.5084         D2E/DX2 =    0.0837             !
 ! A51   A(23,20,24)           119.2585         D2E/DX2 =    0.084              !
 ! A52   A(19,21,25)           120.578          D2E/DX2 =    0.0826             !
 ! A53   A(19,21,26)           119.5743         D2E/DX2 =    0.0851             !
 ! A54   A(25,21,26)           119.6475         D2E/DX2 =    0.085              !
 ! A55   A(20,23,25)           120.3927         D2E/DX2 =    0.0829             !
 ! A56   A(20,23,27)           119.5423         D2E/DX2 =    0.0855             !
 ! A57   A(25,23,27)           119.8708         D2E/DX2 =    0.0857             !
 ! A58   A(21,25,23)           118.7531         D2E/DX2 =    0.0865             !
 ! A59   A(21,25,41)           120.7238         D2E/DX2 =    0.1107             !
 ! A60   A(23,25,41)           120.084          D2E/DX2 =    0.1089             !
 ! A61   A(12,28,29)           121.5441         D2E/DX2 =    0.1133             !
 ! A62   A(12,28,30)           120.4007         D2E/DX2 =    0.1112             !
 ! A63   A(29,28,30)           118.0017         D2E/DX2 =    0.0867             !
 ! A64   A(28,29,31)           120.9984         D2E/DX2 =    0.0827             !
 ! A65   A(28,29,32)           120.0399         D2E/DX2 =    0.0836             !
 ! A66   A(31,29,32)           118.9436         D2E/DX2 =    0.0852             !
 ! A67   A(28,30,33)           121.2157         D2E/DX2 =    0.0835             !
 ! A68   A(28,30,34)           119.3663         D2E/DX2 =    0.0842             !
 ! A69   A(33,30,34)           119.3885         D2E/DX2 =    0.0842             !
 ! A70   A(29,31,35)           120.6161         D2E/DX2 =    0.083              !
 ! A71   A(29,31,36)           119.8211         D2E/DX2 =    0.0844             !
 ! A72   A(35,31,36)           119.5052         D2E/DX2 =    0.085              !
 ! A73   A(30,33,35)           120.4653         D2E/DX2 =    0.0828             !
 ! A74   A(30,33,37)           119.8309         D2E/DX2 =    0.085              !
 ! A75   A(35,33,37)           119.6045         D2E/DX2 =    0.0855             !
 ! A76   A(31,35,33)           118.6601         D2E/DX2 =    0.0866             !
 ! A77   A(31,35,38)           120.5279         D2E/DX2 =    0.1082             !
 ! A78   A(33,35,38)           120.6136         D2E/DX2 =    0.1104             !
 ! A79   A(35,38,39)           110.9722         D2E/DX2 =    0.0221             !
 ! A80   A(35,38,40)           111.1855         D2E/DX2 =    0.0208             !
 ! A81   A(35,38,68)           115.2403         D2E/DX2 =    0.0385             !
 ! A82   A(39,38,40)           109.1359         D2E/DX2 =    0.0132             !
 ! A83   A(39,38,68)           106.0374         D2E/DX2 =    0.0212             !
 ! A84   A(40,38,68)           103.8494         D2E/DX2 =    0.022              !
 ! A85   A(38,39,95)           123.0021         D2E/DX2 =    0.0218             !
 ! A86   A(25,41,42)           110.4722         D2E/DX2 =    0.0367             !
 ! A87   A(25,41,43)           110.022          D2E/DX2 =    0.0416             !
 ! A88   A(25,41,69)           116.2013         D2E/DX2 =    0.1336             !
 ! A89   A(42,41,43)           108.6136         D2E/DX2 =    0.0213             !
 ! A90   A(42,41,69)           106.2195         D2E/DX2 =    0.0482             !
 ! A91   A(43,41,69)           104.9419         D2E/DX2 =    0.0867             !
 ! A92   A(41,43,71)           108.8399         D2E/DX2 =    0.0549             !
 ! A93   A(45,44,46)           110.507          D2E/DX2 =    0.0266             !
 ! A94   A(45,44,47)           110.5048         D2E/DX2 =    0.0287             !
 ! A95   A(45,44,68)           108.7596         D2E/DX2 =    0.0659             !
 ! A96   A(46,44,47)           109.2751         D2E/DX2 =    0.03               !
 ! A97   A(46,44,68)           108.6043         D2E/DX2 =    0.0658             !
 ! A98   A(47,44,68)           109.1519         D2E/DX2 =    0.0403             !
 ! A99   A(44,47,91)           161.5921         D2E/DX2 =    0.0315             !
 ! A100  A(49,48,50)           109.6056         D2E/DX2 =    0.0532             !
 ! A101  A(49,48,51)           110.3248         D2E/DX2 =    0.0531             !
 ! A102  A(49,48,68)           109.1686         D2E/DX2 =    0.1293             !
 ! A103  A(50,48,51)           110.2131         D2E/DX2 =    0.0528             !
 ! A104  A(50,48,68)           108.7192         D2E/DX2 =    0.1302             !
 ! A105  A(51,48,68)           108.7763         D2E/DX2 =    0.1295             !
 ! A106  A(53,52,54)           110.5732         D2E/DX2 =    0.0282             !
 ! A107  A(53,52,55)           111.0698         D2E/DX2 =    0.0283             !
 ! A108  A(53,52,68)           107.8012         D2E/DX2 =    0.0395             !
 ! A109  A(54,52,55)           110.1728         D2E/DX2 =    0.0265             !
 ! A110  A(54,52,68)           108.5742         D2E/DX2 =    0.0651             !
 ! A111  A(55,52,68)           108.5619         D2E/DX2 =    0.0643             !
 ! A112  A(52,53,90)           153.8276         D2E/DX2 =    0.0328             !
 ! A113  A(57,56,58)           110.6014         D2E/DX2 =    0.0544             !
 ! A114  A(57,56,59)           110.7218         D2E/DX2 =    0.0533             !
 ! A115  A(57,56,69)           108.6225         D2E/DX2 =    0.1285             !
 ! A116  A(58,56,59)           109.2327         D2E/DX2 =    0.053              !
 ! A117  A(58,56,69)           109.8448         D2E/DX2 =    0.1306             !
 ! A118  A(59,56,69)           107.7677         D2E/DX2 =    0.1389             !
 ! A119  A(61,60,62)           110.3771         D2E/DX2 =    0.0534             !
 ! A120  A(61,60,63)           110.476          D2E/DX2 =    0.0532             !
 ! A121  A(61,60,69)           108.6787         D2E/DX2 =    0.1318             !
 ! A122  A(62,60,63)           110.4243         D2E/DX2 =    0.0534             !
 ! A123  A(62,60,69)           108.9281         D2E/DX2 =    0.1326             !
 ! A124  A(63,60,69)           107.8886         D2E/DX2 =    0.1383             !
 ! A125  A(65,64,66)           109.8443         D2E/DX2 =    0.0532             !
 ! A126  A(65,64,67)           110.3135         D2E/DX2 =    0.0536             !
 ! A127  A(65,64,69)           109.1121         D2E/DX2 =    0.1306             !
 ! A128  A(66,64,67)           110.091          D2E/DX2 =    0.0528             !
 ! A129  A(66,64,69)           108.5586         D2E/DX2 =    0.1309             !
 ! A130  A(67,64,69)           108.8847         D2E/DX2 =    0.1297             !
 ! A131  A(38,68,44)           106.7061         D2E/DX2 =    0.0183             !
 ! A132  A(38,68,48)           111.3248         D2E/DX2 =    0.0237             !
 ! A133  A(38,68,52)           109.916          D2E/DX2 =    0.0195             !
 ! A134  A(44,68,48)           109.4267         D2E/DX2 =    0.0254             !
 ! A135  A(44,68,52)           109.1143         D2E/DX2 =    0.0194             !
 ! A136  A(48,68,52)           110.2657         D2E/DX2 =    0.0247             !
 ! A137  A(41,69,56)           106.7408         D2E/DX2 =    0.0394             !
 ! A138  A(41,69,60)           109.8833         D2E/DX2 =    0.0384             !
 ! A139  A(41,69,64)           111.0495         D2E/DX2 =    0.0394             !
 ! A140  A(56,69,60)           108.9619         D2E/DX2 =    0.0356             !
 ! A141  A(56,69,64)           109.7318         D2E/DX2 =    0.0363             !
 ! A142  A(60,69,64)           110.3855         D2E/DX2 =    0.0357             !
 ! A143  A(71,70,72)           121.1859         D2E/DX2 =    0.1035             !
 ! A144  A(71,70,73)           120.2327         D2E/DX2 =    0.1276             !
 ! A145  A(72,70,73)           118.5813         D2E/DX2 =    0.0859             !
 ! A146  A(43,71,70)            85.6482         D2E/DX2 =    0.0623             !
 ! A147  A(43,71,95)            78.2835         D2E/DX2 =    0.0342             !
 ! A148  A(70,71,95)           118.5182         D2E/DX2 =    0.0411             !
 ! A149  A(70,72,82)           106.3977         D2E/DX2 =    0.0227             !
 ! A150  A(70,72,86)           107.2108         D2E/DX2 =    0.024              !
 ! A151  A(70,72,92)           107.4704         D2E/DX2 =    0.0103             !
 ! A152  A(82,72,86)           124.3841         D2E/DX2 =    0.0087             !
 ! A153  A(82,72,92)           107.4318         D2E/DX2 =    0.0169             !
 ! A154  A(86,72,92)           102.9966         D2E/DX2 =    0.0166             !
 ! A155  A(70,73,80)           117.5603         D2E/DX2 =    0.0668             !
 ! A156  A(70,73,88)           110.7761         D2E/DX2 =    0.0376             !
 ! A157  A(80,73,88)           131.2476         D2E/DX2 =    0.0538             !
 ! A158  A(79,78,80)           105.6003         D2E/DX2 =    0.1287             !
 ! A159  A(82,81,83)           100.0933         D2E/DX2 =    0.1465             !
 ! A160  A(72,82,81)           162.8739         D2E/DX2 =    0.0375             !
 ! A161  A(85,84,86)            98.972          D2E/DX2 =    0.1524             !
 ! A162  A(72,86,84)           157.4328         D2E/DX2 =    0.0403             !
 ! A163  A(88,87,89)           102.9228         D2E/DX2 =    0.0316             !
 ! A164  A(88,87,91)            93.3937         D2E/DX2 =    0.0251             !
 ! A165  A(89,87,91)            97.9416         D2E/DX2 =    0.0097             !
 ! A166  A(53,90,91)           109.9073         D2E/DX2 =    0.0154             !
 ! A167  A(53,90,92)           126.8382         D2E/DX2 =    0.012              !
 ! A168  A(91,90,92)           100.4279         D2E/DX2 =    0.0207             !
 ! A169  A(47,91,87)            69.784          D2E/DX2 =    0.0161             !
 ! A170  A(47,91,90)           102.6022         D2E/DX2 =    0.0135             !
 ! A171  A(87,91,90)           155.1706         D2E/DX2 =    0.02               !
 ! A172  A(40,92,72)            86.5173         D2E/DX2 =    0.0094             !
 ! A173  A(40,92,90)            82.6922         D2E/DX2 =    0.0088             !
 ! A174  A(72,92,90)           155.3587         D2E/DX2 =    0.0112             !
 ! A175  A(94,93,95)           102.0678         D2E/DX2 =    0.1713             !
 ! A176  A(39,95,71)            82.4704         D2E/DX2 =    0.0102             !
 ! A177  A(39,95,93)            95.8869         D2E/DX2 =    0.0154             !
 ! A178  L(38,40,92,1,-1)      182.3113         D2E/DX2 =    0.0239             !
 ! A179  L(73,80,78,1,-1)      177.8487         D2E/DX2 =    0.0716             !
 ! A180  L(73,88,87,36,-1)     177.2804         D2E/DX2 =    0.0248             !
 ! A181  L(71,95,93,39,-1)     178.3572         D2E/DX2 =    0.017              !
 ! A182  L(38,40,92,1,-2)      176.3952         D2E/DX2 =    0.0147             !
 ! A183  L(73,80,78,1,-2)      174.7795         D2E/DX2 =    0.0532             !
 ! A184  L(73,88,87,36,-2)     180.9737         D2E/DX2 =    0.0204             !
 ! A185  L(71,95,93,39,-2)     185.2745         D2E/DX2 =    0.0213             !
 ! D1    D(3,1,2,6)            179.9887         D2E/DX2 =    0.0136             !
 ! D2    D(3,1,2,7)            -62.4714         D2E/DX2 =    0.0128             !
 ! D3    D(3,1,2,18)            55.5166         D2E/DX2 =    0.0136             !
 ! D4    D(4,1,2,6)            -59.7478         D2E/DX2 =    0.0135             !
 ! D5    D(4,1,2,7)             57.7921         D2E/DX2 =    0.0129             !
 ! D6    D(4,1,2,18)           175.7801         D2E/DX2 =    0.0139             !
 ! D7    D(5,1,2,6)             59.7069         D2E/DX2 =    0.0135             !
 ! D8    D(5,1,2,7)            177.2467         D2E/DX2 =    0.0125             !
 ! D9    D(5,1,2,18)           -64.7652         D2E/DX2 =    0.0139             !
 ! D10   D(1,2,6,8)            172.8525         D2E/DX2 =    0.0192             !
 ! D11   D(1,2,6,76)            50.7272         D2E/DX2 =    0.0167             !
 ! D12   D(1,2,6,77)           -64.557          D2E/DX2 =    0.0163             !
 ! D13   D(7,2,6,8)             55.1189         D2E/DX2 =    0.0141             !
 ! D14   D(7,2,6,76)           -67.0064         D2E/DX2 =    0.0137             !
 ! D15   D(7,2,6,77)           177.7093         D2E/DX2 =    0.0134             !
 ! D16   D(18,2,6,8)           -61.7144         D2E/DX2 =    0.0167             !
 ! D17   D(18,2,6,76)          176.1603         D2E/DX2 =    0.017              !
 ! D18   D(18,2,6,77)           60.876          D2E/DX2 =    0.0167             !
 ! D19   D(1,2,18,19)           57.7331         D2E/DX2 =    0.0142             !
 ! D20   D(1,2,18,20)         -127.2135         D2E/DX2 =    0.014              !
 ! D21   D(6,2,18,19)          -66.98           D2E/DX2 =    0.0163             !
 ! D22   D(6,2,18,20)          108.0735         D2E/DX2 =    0.0154             !
 ! D23   D(7,2,18,19)          176.0451         D2E/DX2 =    0.0106             !
 ! D24   D(7,2,18,20)           -8.9015         D2E/DX2 =    0.0097             !
 ! D25   D(2,6,8,9)            -60.9903         D2E/DX2 =    0.0149             !
 ! D26   D(2,6,8,10)            54.9547         D2E/DX2 =    0.0155             !
 ! D27   D(2,6,8,11)           177.2891         D2E/DX2 =    0.016              !
 ! D28   D(76,6,8,9)            60.6532         D2E/DX2 =    0.0157             !
 ! D29   D(76,6,8,10)          176.5982         D2E/DX2 =    0.0154             !
 ! D30   D(76,6,8,11)          -61.0674         D2E/DX2 =    0.0151             !
 ! D31   D(77,6,8,9)           176.7416         D2E/DX2 =    0.0151             !
 ! D32   D(77,6,8,10)          -67.3134         D2E/DX2 =    0.0159             !
 ! D33   D(77,6,8,11)           55.021          D2E/DX2 =    0.0158             !
 ! D34   D(6,8,11,12)          171.3292         D2E/DX2 =    0.0174             !
 ! D35   D(6,8,11,74)          -66.0763         D2E/DX2 =    0.0158             !
 ! D36   D(6,8,11,75)           50.1252         D2E/DX2 =    0.0153             !
 ! D37   D(9,8,11,12)           49.8362         D2E/DX2 =    0.0155             !
 ! D38   D(9,8,11,74)          172.4308         D2E/DX2 =    0.015              !
 ! D39   D(9,8,11,75)          -71.3678         D2E/DX2 =    0.0159             !
 ! D40   D(10,8,11,12)         -66.0848         D2E/DX2 =    0.016              !
 ! D41   D(10,8,11,74)          56.5097         D2E/DX2 =    0.0157             !
 ! D42   D(10,8,11,75)         172.7112         D2E/DX2 =    0.0153             !
 ! D43   D(8,11,12,13)         -58.2674         D2E/DX2 =    0.014              !
 ! D44   D(8,11,12,14)        -175.3845         D2E/DX2 =    0.0197             !
 ! D45   D(8,11,12,28)          58.4829         D2E/DX2 =    0.016              !
 ! D46   D(74,11,12,13)        179.0374         D2E/DX2 =    0.0136             !
 ! D47   D(74,11,12,14)         61.9204         D2E/DX2 =    0.0167             !
 ! D48   D(74,11,12,28)        -64.2122         D2E/DX2 =    0.0166             !
 ! D49   D(75,11,12,13)         63.7779         D2E/DX2 =    0.0137             !
 ! D50   D(75,11,12,14)        -53.3392         D2E/DX2 =    0.0169             !
 ! D51   D(75,11,12,28)       -179.4717         D2E/DX2 =    0.017              !
 ! D52   D(11,12,14,15)        179.5865         D2E/DX2 =    0.0137             !
 ! D53   D(11,12,14,16)        -60.0562         D2E/DX2 =    0.0136             !
 ! D54   D(11,12,14,17)         59.3523         D2E/DX2 =    0.0136             !
 ! D55   D(13,12,14,15)         62.8            D2E/DX2 =    0.0129             !
 ! D56   D(13,12,14,16)       -176.8427         D2E/DX2 =    0.0127             !
 ! D57   D(13,12,14,17)        -57.4342         D2E/DX2 =    0.0131             !
 ! D58   D(28,12,14,15)        -54.4995         D2E/DX2 =    0.0137             !
 ! D59   D(28,12,14,16)         65.8578         D2E/DX2 =    0.014              !
 ! D60   D(28,12,14,17)       -174.7337         D2E/DX2 =    0.0139             !
 ! D61   D(11,12,28,29)         72.4246         D2E/DX2 =    0.0159             !
 ! D62   D(11,12,28,30)       -104.8637         D2E/DX2 =    0.0145             !
 ! D63   D(13,12,28,29)       -170.6946         D2E/DX2 =    0.0109             !
 ! D64   D(13,12,28,30)         12.0172         D2E/DX2 =    0.0099             !
 ! D65   D(14,12,28,29)        -52.946          D2E/DX2 =    0.0142             !
 ! D66   D(14,12,28,30)        129.7658         D2E/DX2 =    0.0141             !
 ! D67   D(2,18,19,21)         173.9266         D2E/DX2 =    0.0099             !
 ! D68   D(2,18,19,22)          -2.6921         D2E/DX2 =    0.0086             !
 ! D69   D(20,18,19,21)         -1.262          D2E/DX2 =    0.008              !
 ! D70   D(20,18,19,22)       -177.8807         D2E/DX2 =    0.0073             !
 ! D71   D(2,18,20,23)        -174.0079         D2E/DX2 =    0.0106             !
 ! D72   D(2,18,20,24)           2.6525         D2E/DX2 =    0.0086             !
 ! D73   D(19,18,20,23)          1.1718         D2E/DX2 =    0.0084             !
 ! D74   D(19,18,20,24)        177.8322         D2E/DX2 =    0.0072             !
 ! D75   D(18,19,21,25)          0.9367         D2E/DX2 =    0.0092             !
 ! D76   D(18,19,21,26)       -173.9044         D2E/DX2 =    0.0089             !
 ! D77   D(22,19,21,25)        177.5895         D2E/DX2 =    0.0092             !
 ! D78   D(22,19,21,26)          2.7484         D2E/DX2 =    0.0094             !
 ! D79   D(18,20,23,25)         -0.7537         D2E/DX2 =    0.0092             !
 ! D80   D(18,20,23,27)        174.1757         D2E/DX2 =    0.0094             !
 ! D81   D(24,20,23,25)       -177.4223         D2E/DX2 =    0.0091             !
 ! D82   D(24,20,23,27)         -2.4929         D2E/DX2 =    0.0095             !
 ! D83   D(19,21,25,23)         -0.4775         D2E/DX2 =    0.0089             !
 ! D84   D(19,21,25,41)       -172.8804         D2E/DX2 =    0.0109             !
 ! D85   D(26,21,25,23)        174.3598         D2E/DX2 =    0.0076             !
 ! D86   D(26,21,25,41)          1.957          D2E/DX2 =    0.0087             !
 ! D87   D(20,23,25,21)          0.3851         D2E/DX2 =    0.0085             !
 ! D88   D(20,23,25,41)        172.8379         D2E/DX2 =    0.0105             !
 ! D89   D(27,23,25,21)       -174.5276         D2E/DX2 =    0.0075             !
 ! D90   D(27,23,25,41)         -2.0748         D2E/DX2 =    0.0086             !
 ! D91   D(21,25,41,42)         31.3345         D2E/DX2 =    0.0121             !
 ! D92   D(21,25,41,43)        151.2461         D2E/DX2 =    0.012              !
 ! D93   D(21,25,41,69)        -89.7302         D2E/DX2 =    0.022              !
 ! D94   D(23,25,41,42)       -140.9676         D2E/DX2 =    0.0124             !
 ! D95   D(23,25,41,43)        -21.056          D2E/DX2 =    0.0127             !
 ! D96   D(23,25,41,69)         97.9677         D2E/DX2 =    0.0202             !
 ! D97   D(12,28,29,31)       -178.4676         D2E/DX2 =    0.0101             !
 ! D98   D(12,28,29,32)         -0.0301         D2E/DX2 =    0.0083             !
 ! D99   D(30,28,29,31)         -1.1166         D2E/DX2 =    0.008              !
 ! D100  D(30,28,29,32)        177.321          D2E/DX2 =    0.0071             !
 ! D101  D(12,28,30,33)        177.8441         D2E/DX2 =    0.0101             !
 ! D102  D(12,28,30,34)         -0.1683         D2E/DX2 =    0.0084             !
 ! D103  D(29,28,30,33)          0.4616         D2E/DX2 =    0.0081             !
 ! D104  D(29,28,30,34)       -177.5508         D2E/DX2 =    0.0071             !
 ! D105  D(28,29,31,35)          0.0066         D2E/DX2 =    0.0093             !
 ! D106  D(28,29,31,36)        177.2321         D2E/DX2 =    0.0092             !
 ! D107  D(32,29,31,35)       -178.4478         D2E/DX2 =    0.009              !
 ! D108  D(32,29,31,36)         -1.2223         D2E/DX2 =    0.0094             !
 ! D109  D(28,30,33,35)          1.3132         D2E/DX2 =    0.0093             !
 ! D110  D(28,30,33,37)       -175.0493         D2E/DX2 =    0.0092             !
 ! D111  D(34,30,33,35)        179.3252         D2E/DX2 =    0.0091             !
 ! D112  D(34,30,33,37)          2.9627         D2E/DX2 =    0.0093             !
 ! D113  D(29,31,35,33)          1.7533         D2E/DX2 =    0.0085             !
 ! D114  D(29,31,35,38)        176.6663         D2E/DX2 =    0.0105             !
 ! D115  D(36,31,35,33)       -175.4809         D2E/DX2 =    0.0074             !
 ! D116  D(36,31,35,38)         -0.5679         D2E/DX2 =    0.0086             !
 ! D117  D(30,33,35,31)         -2.4016         D2E/DX2 =    0.0085             !
 ! D118  D(30,33,35,38)       -177.3102         D2E/DX2 =    0.0102             !
 ! D119  D(37,33,35,31)        173.9691         D2E/DX2 =    0.0075             !
 ! D120  D(37,33,35,38)         -0.9395         D2E/DX2 =    0.0085             !
 ! D121  D(31,35,38,39)       -144.7671         D2E/DX2 =    0.0101             !
 ! D122  D(31,35,38,40)        -23.0937         D2E/DX2 =    0.0087             !
 ! D123  D(31,35,38,68)         94.7159         D2E/DX2 =    0.013              !
 ! D124  D(33,35,38,39)         30.046          D2E/DX2 =    0.0097             !
 ! D125  D(33,35,38,40)        151.7195         D2E/DX2 =    0.0097             !
 ! D126  D(33,35,38,68)        -90.4709         D2E/DX2 =    0.0132             !
 ! D127  D(35,38,39,95)         49.9265         D2E/DX2 =    0.0161             !
 ! D128  D(40,38,39,95)        -72.9388         D2E/DX2 =    0.0126             !
 ! D129  D(68,38,39,95)        175.7537         D2E/DX2 =    0.0202             !
 ! D130  D(35,38,92,72)        -85.9872         D2E/DX2 =    0.0232             !
 ! D131  D(35,38,92,90)        116.3381         D2E/DX2 =    0.023              !
 ! D132  D(39,38,92,72)         38.2725         D2E/DX2 =    0.0169             !
 ! D133  D(39,38,92,90)       -119.4022         D2E/DX2 =    0.0142             !
 ! D134  D(68,38,92,72)        151.0304         D2E/DX2 =    0.0143             !
 ! D135  D(68,38,92,90)         -6.6443         D2E/DX2 =    0.0092             !
 ! D136  D(35,38,68,44)        176.1563         D2E/DX2 =    0.0161             !
 ! D137  D(35,38,68,48)         56.8192         D2E/DX2 =    0.0146             !
 ! D138  D(35,38,68,52)        -65.6553         D2E/DX2 =    0.014              !
 ! D139  D(39,38,68,44)         52.9793         D2E/DX2 =    0.0162             !
 ! D140  D(39,38,68,48)        -66.3578         D2E/DX2 =    0.0155             !
 ! D141  D(39,38,68,52)        171.1676         D2E/DX2 =    0.0166             !
 ! D142  D(40,38,68,44)        -61.9921         D2E/DX2 =    0.0118             !
 ! D143  D(40,38,68,48)        178.6708         D2E/DX2 =    0.0128             !
 ! D144  D(40,38,68,52)         56.1963         D2E/DX2 =    0.0106             !
 ! D145  D(38,39,95,71)         41.3565         D2E/DX2 =    0.0169             !
 ! D146  D(38,39,95,93)       -143.918          D2E/DX2 =    0.0292             !
 ! D147  D(25,41,43,71)        -76.9731         D2E/DX2 =    0.0231             !
 ! D148  D(42,41,43,71)         44.0598         D2E/DX2 =    0.0197             !
 ! D149  D(69,41,43,71)        157.3214         D2E/DX2 =    0.0445             !
 ! D150  D(25,41,69,56)       -179.0776         D2E/DX2 =    0.0169             !
 ! D151  D(25,41,69,60)        -61.0683         D2E/DX2 =    0.0156             !
 ! D152  D(25,41,69,64)         61.3496         D2E/DX2 =    0.0155             !
 ! D153  D(42,41,69,56)         57.6163         D2E/DX2 =    0.0152             !
 ! D154  D(42,41,69,60)        175.6256         D2E/DX2 =    0.015              !
 ! D155  D(42,41,69,64)        -61.9565         D2E/DX2 =    0.0139             !
 ! D156  D(43,41,69,56)        -57.3242         D2E/DX2 =    0.0175             !
 ! D157  D(43,41,69,60)         60.6851         D2E/DX2 =    0.0153             !
 ! D158  D(43,41,69,64)       -176.897          D2E/DX2 =    0.0155             !
 ! D159  D(41,43,71,70)       -101.0143         D2E/DX2 =    0.0375             !
 ! D160  D(41,43,71,95)        138.6684         D2E/DX2 =    0.0333             !
 ! D161  D(45,44,47,91)       -109.7923         D2E/DX2 =    0.0277             !
 ! D162  D(46,44,47,91)        128.4039         D2E/DX2 =    0.0287             !
 ! D163  D(68,44,47,91)          9.7688         D2E/DX2 =    0.0125             !
 ! D164  D(45,44,68,38)        179.0943         D2E/DX2 =    0.0142             !
 ! D165  D(45,44,68,48)        -60.345          D2E/DX2 =    0.0149             !
 ! D166  D(45,44,68,52)         60.3815         D2E/DX2 =    0.0139             !
 ! D167  D(46,44,68,38)        -60.5939         D2E/DX2 =    0.0138             !
 ! D168  D(46,44,68,48)         59.9669         D2E/DX2 =    0.0146             !
 ! D169  D(46,44,68,52)       -179.3066         D2E/DX2 =    0.014              !
 ! D170  D(47,44,68,38)         58.4592         D2E/DX2 =    0.0116             !
 ! D171  D(47,44,68,48)        179.0199         D2E/DX2 =    0.0187             !
 ! D172  D(47,44,68,52)        -60.2536         D2E/DX2 =    0.0124             !
 ! D173  D(44,47,91,87)       -157.3833         D2E/DX2 =    0.0162             !
 ! D174  D(44,47,91,90)         -2.0585         D2E/DX2 =    0.0073             !
 ! D175  D(49,48,68,38)        -63.7441         D2E/DX2 =    0.0126             !
 ! D176  D(49,48,68,44)        178.5522         D2E/DX2 =    0.0131             !
 ! D177  D(49,48,68,52)         58.5287         D2E/DX2 =    0.0124             !
 ! D178  D(50,48,68,38)         55.7856         D2E/DX2 =    0.0123             !
 ! D179  D(50,48,68,44)        -61.9181         D2E/DX2 =    0.0125             !
 ! D180  D(50,48,68,52)        178.0584         D2E/DX2 =    0.0125             !
 ! D181  D(51,48,68,38)        175.8196         D2E/DX2 =    0.0125             !
 ! D182  D(51,48,68,44)         58.1159         D2E/DX2 =    0.0126             !
 ! D183  D(51,48,68,52)        -61.9076         D2E/DX2 =    0.0123             !
 ! D184  D(54,52,53,90)       -112.9651         D2E/DX2 =    0.0296             !
 ! D185  D(55,52,53,90)        124.3962         D2E/DX2 =    0.0297             !
 ! D186  D(68,52,53,90)          5.5804         D2E/DX2 =    0.0101             !
 ! D187  D(53,52,68,38)        -56.4823         D2E/DX2 =    0.0118             !
 ! D188  D(53,52,68,44)         60.2069         D2E/DX2 =    0.0131             !
 ! D189  D(53,52,68,48)       -179.5813         D2E/DX2 =    0.0182             !
 ! D190  D(54,52,68,38)         63.3361         D2E/DX2 =    0.0136             !
 ! D191  D(54,52,68,44)       -179.9747         D2E/DX2 =    0.0147             !
 ! D192  D(54,52,68,48)        -59.7629         D2E/DX2 =    0.015              !
 ! D193  D(55,52,68,38)       -176.8882         D2E/DX2 =    0.0134             !
 ! D194  D(55,52,68,44)        -60.199          D2E/DX2 =    0.014              !
 ! D195  D(55,52,68,48)         60.0128         D2E/DX2 =    0.0146             !
 ! D196  D(52,53,90,91)        -64.0363         D2E/DX2 =    0.01               !
 ! D197  D(52,53,90,92)         56.7488         D2E/DX2 =    0.0097             !
 ! D198  D(57,56,69,41)       -177.3134         D2E/DX2 =    0.0169             !
 ! D199  D(57,56,69,60)         64.0742         D2E/DX2 =    0.0157             !
 ! D200  D(57,56,69,64)        -56.8921         D2E/DX2 =    0.0155             !
 ! D201  D(58,56,69,41)        -56.2248         D2E/DX2 =    0.0171             !
 ! D202  D(58,56,69,60)       -174.8372         D2E/DX2 =    0.0165             !
 ! D203  D(58,56,69,64)         64.1965         D2E/DX2 =    0.016              !
 ! D204  D(59,56,69,41)         62.6824         D2E/DX2 =    0.0179             !
 ! D205  D(59,56,69,60)        -55.93           D2E/DX2 =    0.0163             !
 ! D206  D(59,56,69,64)       -176.8962         D2E/DX2 =    0.0162             !
 ! D207  D(61,60,69,41)       -177.0645         D2E/DX2 =    0.0171             !
 ! D208  D(61,60,69,56)        -60.4401         D2E/DX2 =    0.0162             !
 ! D209  D(61,60,69,64)         60.1251         D2E/DX2 =    0.0154             !
 ! D210  D(62,60,69,41)         62.6373         D2E/DX2 =    0.0171             !
 ! D211  D(62,60,69,56)        179.2617         D2E/DX2 =    0.0168             !
 ! D212  D(62,60,69,64)        -60.1731         D2E/DX2 =    0.0156             !
 ! D213  D(63,60,69,41)        -57.2533         D2E/DX2 =    0.0179             !
 ! D214  D(63,60,69,56)         59.371          D2E/DX2 =    0.0168             !
 ! D215  D(63,60,69,64)        179.9363         D2E/DX2 =    0.0162             !
 ! D216  D(65,64,69,41)        -62.3257         D2E/DX2 =    0.0167             !
 ! D217  D(65,64,69,56)        179.9039         D2E/DX2 =    0.0162             !
 ! D218  D(65,64,69,60)         59.8006         D2E/DX2 =    0.0156             !
 ! D219  D(66,64,69,41)         57.3646         D2E/DX2 =    0.0162             !
 ! D220  D(66,64,69,56)        -60.4058         D2E/DX2 =    0.0157             !
 ! D221  D(66,64,69,60)        179.4909         D2E/DX2 =    0.0156             !
 ! D222  D(67,64,69,41)        177.2203         D2E/DX2 =    0.0164             !
 ! D223  D(67,64,69,56)         59.4499         D2E/DX2 =    0.0157             !
 ! D224  D(67,64,69,60)        -60.6534         D2E/DX2 =    0.0154             !
 ! D225  D(72,70,71,43)        107.6794         D2E/DX2 =    0.0399             !
 ! D226  D(72,70,71,95)       -178.1711         D2E/DX2 =    0.0205             !
 ! D227  D(73,70,71,43)        -72.2499         D2E/DX2 =    0.0397             !
 ! D228  D(73,70,71,95)          1.8995         D2E/DX2 =    0.0148             !
 ! D229  D(71,70,72,82)       -150.1377         D2E/DX2 =    0.0144             !
 ! D230  D(71,70,72,86)        -15.1114         D2E/DX2 =    0.0111             !
 ! D231  D(71,70,72,92)         95.0284         D2E/DX2 =    0.007              !
 ! D232  D(73,70,72,82)         29.7928         D2E/DX2 =    0.0128             !
 ! D233  D(73,70,72,86)        164.8191         D2E/DX2 =    0.0129             !
 ! D234  D(73,70,72,92)        -85.0411         D2E/DX2 =    0.0093             !
 ! D235  D(71,70,73,80)         44.3196         D2E/DX2 =    0.0137             !
 ! D236  D(71,70,73,88)       -142.2494         D2E/DX2 =    0.0123             !
 ! D237  D(72,70,73,80)       -135.6115         D2E/DX2 =    0.0126             !
 ! D238  D(72,70,73,88)         37.8194         D2E/DX2 =    0.0113             !
 ! D239  D(43,71,95,39)        147.9012         D2E/DX2 =    0.0414             !
 ! D240  D(70,71,95,39)         69.49           D2E/DX2 =    0.0156             !
 ! D241  D(70,72,82,81)          2.6028         D2E/DX2 =    0.0094             !
 ! D242  D(86,72,82,81)       -122.5045         D2E/DX2 =    0.0123             !
 ! D243  D(92,72,82,81)        117.4629         D2E/DX2 =    0.009              !
 ! D244  D(70,72,86,84)         -5.8021         D2E/DX2 =    0.0092             !
 ! D245  D(82,72,86,84)        118.9536         D2E/DX2 =    0.0104             !
 ! D246  D(92,72,86,84)       -119.0084         D2E/DX2 =    0.0085             !
 ! D247  D(70,72,92,40)        -16.4808         D2E/DX2 =    0.0158             !
 ! D248  D(70,72,92,90)         47.5223         D2E/DX2 =    0.0096             !
 ! D249  D(82,72,92,40)       -130.6243         D2E/DX2 =    0.0144             !
 ! D250  D(82,72,92,90)        -66.6212         D2E/DX2 =    0.0078             !
 ! D251  D(86,72,92,40)         96.5356         D2E/DX2 =    0.0157             !
 ! D252  D(86,72,92,90)        160.5387         D2E/DX2 =    0.0086             !
 ! D253  D(70,73,78,79)       -176.6488         D2E/DX2 =    0.0092             !
 ! D254  D(88,73,78,79)         14.3            D2E/DX2 =    0.0061             !
 ! D255  D(70,73,87,89)        -79.6449         D2E/DX2 =    0.0064             !
 ! D256  D(70,73,87,91)         18.8826         D2E/DX2 =    0.0147             !
 ! D257  D(80,73,87,89)         92.8003         D2E/DX2 =    0.005              !
 ! D258  D(80,73,87,91)       -168.6722         D2E/DX2 =    0.0125             !
 ! D259  D(83,81,82,72)        -14.9084         D2E/DX2 =    0.0332             !
 ! D260  D(85,84,86,72)         22.9061         D2E/DX2 =    0.0339             !
 ! D261  D(88,87,91,47)         79.4619         D2E/DX2 =    0.0116             !
 ! D262  D(88,87,91,90)          3.4781         D2E/DX2 =    0.008              !
 ! D263  D(89,87,91,47)       -176.9775         D2E/DX2 =    0.014              !
 ! D264  D(89,87,91,90)        107.0386         D2E/DX2 =    0.0114             !
 ! D265  D(53,90,91,47)         25.4642         D2E/DX2 =    0.0083             !
 ! D266  D(53,90,91,87)         94.3611         D2E/DX2 =    0.0085             !
 ! D267  D(92,90,91,47)       -110.1804         D2E/DX2 =    0.0096             !
 ! D268  D(92,90,91,87)        -41.2835         D2E/DX2 =    0.0079             !
 ! D269  D(53,90,92,40)        -27.7919         D2E/DX2 =    0.0073             !
 ! D270  D(53,90,92,72)        -92.5486         D2E/DX2 =    0.0095             !
 ! D271  D(91,90,92,40)         96.9906         D2E/DX2 =    0.0121             !
 ! D272  D(91,90,92,72)         32.234          D2E/DX2 =    0.0125             !
 ! D273  D(94,93,95,39)       -104.8241         D2E/DX2 =    0.0342             !
 --------------------------------------------------------------------------------
 Trust Radius=3.00D-01 FncErr=1.00D-07 GrdErr=1.00D-06 EigMax=2.50D+02 EigMin=1.00D-04
 Number of steps in this run=    569 maximum allowed number of steps=    570.
 GradGradGradGradGradGradGradGradGradGradGradGradGradGradGradGradGradGrad

 Leave Link  103 at Sun Mar 10 00:33:59 2024, MaxMem=  2013265920 cpu:               0.8 elap:               0.1
 (Enter /packages/apps/gaussian/g16/g16/l202.exe)
 Stoichiometry    C28H56N2O9
 Framework group  C1[X(C28H56N2O9)]
 Deg. of freedom   279
 Full point group                 C1      NOp   1
 Largest Abelian subgroup         C1      NOp   1
 Largest concise Abelian subgroup C1      NOp   1
                         Standard orientation:                         
 ---------------------------------------------------------------------
 Center     Atomic      Atomic             Coordinates (Angstroms)
 Number     Number       Type             X           Y           Z
 ---------------------------------------------------------------------
      1          6           0        6.247472    2.238159    0.101265
      2          6           0        5.163287    1.231759    0.491791
      3          1           0        6.164360    3.153543    0.687586
      4          1           0        7.239209    1.814878    0.266354
      5          1           0        6.175897    2.508197   -0.953655
      6          6           0        5.282616   -0.058324   -0.336874
      7          1           0        5.317152    0.964183    1.541184
      8          6           0        4.345277   -1.173762    0.113806
      9          1           0        4.582466   -1.442644    1.149083
     10          1           0        3.315287   -0.811967    0.122084
     11          6           0        4.439231   -2.415426   -0.766479
     12          6           0        3.669727   -3.629738   -0.223285
     13          1           0        4.073446   -3.847824    0.769867
     14          6           0        3.906143   -4.861382   -1.099823
     15          1           0        3.368173   -5.727979   -0.714824
     16          1           0        3.574645   -4.689382   -2.124986
     17          1           0        4.968696   -5.105878   -1.134738
     18          6           0        3.770016    1.813178    0.375585
     19          6           0        3.310424    2.325665   -0.836245
     20          6           0        2.881242    1.757942    1.443349
     21          6           0        2.000035    2.743131   -0.981324
     22          1           0        3.966698    2.350729   -1.696628
     23          6           0        1.566869    2.176646    1.304785
     24          1           0        3.204319    1.331412    2.384625
     25          6           0        1.112868    2.678120    0.090506
     26          1           0        1.640355    3.044037   -1.956200
     27          1           0        0.872186    2.034828    2.123341
     28          6           0        2.195746   -3.328720   -0.042060
     29          6           0        1.338918   -3.196335   -1.133538
     30          6           0        1.670915   -3.120670    1.229195
     31          6           0        0.000249   -2.890110   -0.956229
     32          1           0        1.721832   -3.308165   -2.139607
     33          6           0        0.334956   -2.800800    1.411096
     34          1           0        2.325508   -3.178504    2.089999
     35          6           0       -0.521846   -2.706762    0.320903
     36          1           0       -0.638378   -2.747507   -1.818972
     37          1           0       -0.032201   -2.564964    2.401668
     38          6           0       -1.951121   -2.303065    0.507289
     39          1           0       -2.059761   -1.639254    1.361409
     40          1           0       -2.337002   -1.810589   -0.376288
     41          6           0       -0.341179    2.977910   -0.100984
     42          1           0       -0.659842    2.693748   -1.102266
     43          1           0       -0.931114    2.426078    0.618806
     44          6           0       -4.263713   -2.838933    0.994134
     45          1           0       -4.990950   -3.632706    1.149194
     46          1           0       -4.193251   -2.209562    1.876844
     47          1           0       -4.542649   -2.229142    0.140651
     48          6           0       -2.530565   -4.270010    1.912857
     49          1           0       -1.570721   -4.736246    1.713607
     50          1           0       -2.446768   -3.618297    2.779024
     51          1           0       -3.290469   -5.028680    2.085538
     52          6           0       -3.007818   -4.307452   -0.478583
     53          1           0       -3.294624   -3.668853   -1.313985
     54          1           0       -2.032038   -4.751125   -0.654705
     55          1           0       -3.748753   -5.085791   -0.308904
     56          6           0       -2.236191    4.485934   -0.132855
     57          1           0       -2.560482    5.521559   -0.056473
     58          1           0       -2.482538    4.078990   -1.110659
     59          1           0       -2.705730    3.877949    0.636821
     60          6           0       -0.454214    4.874414    1.468328
     61          1           0       -0.806398    5.896021    1.592799
     62          1           0        0.618910    4.822240    1.627810
     63          1           0       -0.972831    4.206861    2.153478
     64          6           0       -0.076901    5.308306   -0.901313
     65          1           0        0.995361    5.262628   -0.735536
     66          1           0       -0.311041    4.953618   -1.901756
     67          1           0       -0.435773    6.326741   -0.772523
     68          7           0       -2.928288   -3.454426    0.740491
     69          7           0       -0.757886    4.431607    0.081610
     70          6           0       -2.233682    0.597678   -0.464199
     71          8           0       -1.076173    0.288466   -0.049478
     72          8           0       -2.482979    0.710846   -1.722425
     73          8           0       -3.200873    0.809833    0.385262
     74          1           0        4.072983   -2.177259   -1.770137
     75          1           0        5.488794   -2.703815   -0.881563
     76          1           0        6.317352   -0.410310   -0.284250
     77          1           0        5.091547    0.176771   -1.388780
     78          8           0       -2.645808    2.325072    2.410727
     79          1           0       -3.419560    2.351316    2.971847
     80          1           0       -2.875685    1.691607    1.661632
     81          8           0       -4.451820    2.597162   -1.662219
     82          1           0       -3.773255    1.916886   -1.870350
     83          1           0       -4.522421    2.479213   -0.712439
     84          8           0        0.092340    0.866024   -2.679806
     85          1           0        0.349080    0.508240   -1.823934
     86          1           0       -0.877746    0.808282   -2.584204
     87          8           0       -5.505443   -0.179897   -0.593948
     88          1           0       -4.675341    0.199398   -0.212689
     89          1           0       -5.786352    0.497750   -1.213608
     90          8           0       -3.756909   -1.705730   -2.266060
     91          1           0       -4.543959   -1.317214   -1.855651
     92          1           0       -3.175299   -0.924547   -2.306742
     93          8           0       -0.778860    0.032040    2.636864
     94          1           0       -1.379038    0.727572    2.923707
     95          1           0       -0.829426    0.108006    1.655461
 ---------------------------------------------------------------------
 Rotational constants (GHZ):           0.0926755           0.0803488           0.0509841
 Leave Link  202 at Sun Mar 10 00:33:59 2024, MaxMem=  2013265920 cpu:               0.3 elap:               0.0
 (Enter /packages/apps/gaussian/g16/g16/l301.exe)
 Standard basis: 6-311+G(2d,2p) (5D, 7F)
 Ernie: Thresh=  0.10000D-02 Tol=  0.10000D-05 Strict=F.
 There are  1635 symmetry adapted cartesian basis functions of A   symmetry.
 There are  1557 symmetry adapted basis functions of A   symmetry.
  1557 basis functions,  2254 primitive gaussians,  1635 cartesian basis functions
   155 alpha electrons      155 beta electrons
       nuclear repulsion energy      5348.5621612065 Hartrees.
 IExCor= 4639 DFT=T Ex+Corr=wB97XD ExCW=0 ScaHFX=  1.000000
 ScaDFX=  1.000000  1.000000  1.000000  1.000000 ScalE2=  1.000000  1.000000
 IRadAn=      5 IRanWt=     -1 IRanGd=            0 ICorTp=0 IEmpDi=121
 HFx  wShort=  0.000000 wLong=  0.200000 cFull=  0.222036 cShort=  0.000000 cLong=  0.777964
 DFx  wShort=  0.000000 wLong=  0.200000 cFull=  0.000000 cShort=  0.000000 cLong=  1.000000
 NAtoms=   95 NActive=   95 NUniq=   95 SFac= 1.00D+00 NAtFMM=   60 NAOKFM=T Big=T
 Integral buffers will be    131072 words long.
 Raffenetti 2 integral format.
 Two-electron integral symmetry is turned on.
 R6Disp:  Grimme-D2 Dispersion energy=       -0.1083834614 Hartrees.
 Nuclear repulsion after empirical dispersion term =     5348.4537777451 Hartrees.
 Leave Link  301 at Sun Mar 10 00:34:00 2024, MaxMem=  2013265920 cpu:               1.4 elap:               0.1
 (Enter /packages/apps/gaussian/g16/g16/l302.exe)
 NPDir=0 NMtPBC=     1 NCelOv=     1 NCel=       1 NClECP=     1 NCelD=      1
         NCelK=      1 NCelE2=     1 NClLst=     1 CellRange=     0.0.
 One-electron integrals computed using PRISM.
 One-electron integral symmetry used in STVInt
 NBasis=  1557 RedAO= T EigKep=  1.20D-06  NBF=  1557
 NBsUse=  1548 1.00D-06 EigRej=  9.34D-07 NBFU=  1548
 Precomputing XC quadrature grid using
 IXCGrd= 4 IRadAn=           5 IRanWt=          -1 IRanGd=           0 AccXCQ= 0.00D+00.
 Generated NRdTot=       0 NPtTot=           0 NUsed=           0 NTot=          32
 NSgBfM=  1511  1493  1498  1498  1511 MxSgAt=    95 MxSgA2=    95.
 Leave Link  302 at Sun Mar 10 00:34:03 2024, MaxMem=  2013265920 cpu:              66.8 elap:               3.4
 (Enter /packages/apps/gaussian/g16/g16/l303.exe)
 DipDrv:  MaxL=1.
 Leave Link  303 at Sun Mar 10 00:34:04 2024, MaxMem=  2013265920 cpu:               5.0 elap:               0.4
 (Enter /packages/apps/gaussian/g16/g16/l401.exe)
 Initial guess from the checkpoint file:  "6water-v4-ofreq.chk"
 B after Tr=    -0.000000   -0.000000    0.000000
         Rot=    1.000000   -0.000000    0.000000   -0.000000 Ang=  -0.00 deg.
 Guess basis will be translated and rotated to current coordinates.
 JPrj=2 DoOrth=T DoCkMO=T.
 Leave Link  401 at Sun Mar 10 00:34:08 2024, MaxMem=  2013265920 cpu:              71.6 elap:               3.7
 (Enter /packages/apps/gaussian/g16/g16/l502.exe)
 Integral symmetry usage will be decided dynamically.
 Closed shell SCF:
 Using DIIS extrapolation, IDIIS=  1040.
 NGot=  2013265920 LenX=  2007871733 LenY=  2005196873
 Requested convergence on RMS density matrix=1.00D-08 within 128 cycles.
 Requested convergence on MAX density matrix=1.00D-06.
 Requested convergence on             energy=1.00D-06.
 No special actions if energy rises.
 Fock matrices will be formed incrementally for  20 cycles.

 Cycle   1  Pass 1  IDiag  1:
 FoFJK:  IHMeth= 1 ICntrl=       0 DoSepK=T KAlg= 0 I1Cent=           0 FoldK=F
 IRaf=         1 NMat=       1 IRICut=       1 DoRegI=T DoRafI=F ISym2E= 0 IDoP0=0 IntGTp=1.
 FoFCou: FMM=T IPFlag=           0 FMFlag=      100000 FMFlg1=        2001
         NFxFlg=           0 DoJE=T BraDBF=F KetDBF=F FulRan=T
[...]
 00000034,0.00006748,0.00001960,0.00000319,-0.00000618,-0.00011604,-0.0
 0028186,0.00026460,0.00006941,0.00003085,0.00004191,0.00000948,0.00000
 107,-0.00015131,0.00000030,0.00002997,0.00001633,-0.00040969,0.0003292
 4,0.00007829,0.00006787,0.00002567,-0.00003568,-0.00004498,-0.00001816
 ,0.00001191,-0.00003417,0.00000365,0.00001192,-0.00003941,0.00007044,-
 0.00006135,-0.00001452,0.00000136,0.00001966,0.00000384,-0.00022378,0.
 00012882,0.00000977,-0.00002731,-0.00000713,0.00000855,0.00008599,0.00
 012926,0.00000773,0.00001042,-0.00000809,0.00008255,-0.00008903,-0.000
 20956,0.00004305,-0.00025191,-0.00027950,0.00004730,-0.00070985,-0.000
 49104,-0.00005715,0.00007416,-0.00001393,-0.00038126,0.00013273,0.0000
 8378,0.00009942,0.00013845,-0.00003869,-0.00010516,0.00015319,0.000472
 42,-0.00002993,-0.00009190,-0.00013165,0.00000066,0.00004656,0.0000349
 7,-0.00010910,-0.00004272,0.00000055,-0.00003488,0.00007309,-0.0000162
 7,-0.00000193,-0.00008295,-0.00011434,0.00000656,0.00001447,0.00002366
 ,-0.00000285,-0.00006863,0.00002346,0.00001127,0.00002434,0.00002595,0
 .00002557,-0.00004640,-0.00009491,-0.00001377,0.00003590,-0.00002357,-
 0.00000390,0.00000618,0.00000810,0.00000505,0.00002417,0.00001442,-0.0
 0010834,-0.00005838,-0.00003501,0.00005177,0.00003074,-0.00001914,0.00
 008492,0.00007969,-0.00004466,-0.00002400,-0.00025509,0.00043305,-0.00
 010601,-0.00010033,0.00028123,0.00002166,0.00003728,-0.00008640,0.0000
 1761,0.00004843,-0.00004321,-0.00015995,-0.00037386,0.00010930,-0.0000
 4720,-0.00012159,0.00005024,0.00001310,0.00003765,0.00000250,-0.000003
 20,0.00002059,-0.00002310,0.00000632,-0.00001050,0.00000801,-0.0000116
 4,0.00013681,0.00021351,0.00014304,-0.00005961,-0.00017087,-0.00256959
 ,0.00071764,-0.00015574,0.00150190,-0.00110705,0.00237060,0.00066964,-
 0.00026601,0.00037542,0.00096317,-0.00249233,-0.00149137,0.00000829,0.
 00000018,0.00000171,-0.00002484,-0.00000722,0.00000425,-0.00000226,-0.
 00002327,-0.00000106,-0.00000676,-0.00000317,0.00001148,-0.00312153,-0
 .00091245,-0.00283303,0.00012679,0.00064367,-0.00097397,0.00160800,0.0
 0335830,0.00445866,0.00002670,-0.00035483,-0.00011452,-0.00016756,0.00
 025748,0.00002477,0.00004937,0.00017620,0.00013289,-0.00002486,-0.0002
 1824,0.00004319,0.00006945,0.00011160,-0.00008286,0.00001270,0.0000860
 6,-0.00004388,0.00003621,-0.00022195,-0.00002761,0.00004256,0.00015265
 ,0.00000603,-0.00000487,0.00006456,0.00002153,0.00009109,-0.00013467,0
 .00011920,-0.00006454,0.00008155,0.00000274,-0.00000030,0.00007892,-0.
 00002367,0.23020587,-0.27514720,-0.11801205,-0.23002485,0.27584316,-0.
 00001076,0.00001920,-0.00000293,0.00002252,-0.00000840,0.00003906,0.00
 000550,-0.00000672,0.00000040,-0.00001635,0.00000178,0.00000255,0.0000
 0569,-0.00000131,-0.00000396,-0.00001490,-0.00000029,-0.00000782,-0.00
 000658,0.00000703,-0.00001264,0.00001515,-0.00001034,0.00001635,0.0000
 0110,0.00000410,-0.00000589,-0.00000919,0.00000264,-0.00000501,-0.0000
 0612,0.00001027,-0.00000366,0.00002304,-0.00001146,0.00002091,-0.00000
 459,0.00000162,-0.00000811,-0.00001196,-0.00000721,-0.00000144,0.00000
 660,0.00000066,-0.00000141,0.00000424,-0.00000118,-0.00000314,-0.00001
 330,0.00000530,0.00000415,-0.00001858,0.00000421,0.00000424,-0.0000444
 9,0.00002441,-0.00001685,-0.00002120,-0.00005846,0.00008716,-0.0000199
 1,0.00001651,-0.00005877,-0.00001092,0.00000620,0.00000653,-0.00011135
 ,-0.00004606,-0.00016511,-0.00002863,0.00003513,0.00000051,0.00006600,
 -0.00008481,0.00003961,0.00001363,0.00000677,-0.00000404,0.00026538,0.
 00014607,0.00027835,-0.00000799,-0.00001684,-0.00005444,0.00002334,0.0
 0000947,0.00002534,-0.00004391,0.00003066,0.00011922,-0.00002856,-0.00
 000271,0.00005719,0.00000058,-0.00000418,0.00000671,0.00003750,0.00017
 237,-0.00012497,-0.00000554,-0.00000355,-0.00000712,-0.00001708,0.0000
 7453,0.00003322,-0.00000260,-0.00001490,-0.00000109,-0.00000671,-0.000
 24332,0.00002807,-0.00005711,-0.00010320,0.00003689,0.00008752,-0.0002
 6533,-0.00008928,-0.00000096,-0.00005014,-0.00003073,0.00026527,0.0002
 3933,-0.00009554,-0.00003480,-0.00005817,0.00003702,0.00005984,0.00047
 048,-0.00039335,-0.00001887,0.00003887,0.00001702,0.00000822,0.0000257
 5,0.00000517,-0.00001971,-0.00003594,0.00005367,-0.00001151,-0.0000503
 7,-0.00000718,0.00003533,0.00000541,0.00008041,-0.00001223,-0.00001870
 ,-0.00001185,-0.00002896,-0.00000850,0.00003057,0.00001110,0.00001718,
 -0.00000231,0.00001038,0.00001042,-0.00002927,-0.00000109,-0.00002989,
 0.00000662,-0.00000685,-0.00000774,0.,0.00001078,0.00001427,0.00000395
 ,-0.00001289,0.00001821,-0.00002760,-0.00000840,-0.00003718,0.00001000
 ,-0.00000468,0.00002339,-0.00001425,-0.00000605,0.00008232,-0.00002017
 ,0.00002316,0.00000012,0.00008104,-0.00000092,-0.00003026,0.00000587,-
 0.00001935,-0.00000383,0.00002271,0.00004968,0.00007428,0.00010024,0.0
 0004601,-0.00003174,-0.00007372,-0.00000767,0.00000661,0.00000780,0.00
 000215,0.00001206,-0.00001511,-0.00000449,-0.00003024,0.00001676,0.000
 01965,0.00007917,-0.00003955,-0.00009615,-0.00009397,0.00005196,0.0002
 9750,-0.00001730,-0.00232276,-0.00149235,0.00159573,0.00023244,-0.0000
 8295,-0.00008413,0.00079149,0.00069565,-0.00000554,0.00126265,0.000004
 14,-0.00000129,-0.00000541,-0.00001597,-0.00000040,0.00000359,-0.00001
 504,0.00001089,0.00000348,0.00000494,-0.00000415,-0.00000632,0.0015231
 6,-0.00177533,-0.00452265,0.00141169,-0.00139167,0.00118659,-0.0034916
 1,0.00278125,-0.00135820,0.00015739,-0.00014785,0.00008716,-0.00012876
 ,0.00011194,-0.00007394,-0.00010097,0.00008867,-0.00003474,-0.00016309
 ,-0.00000674,0.00014779,0.00011496,0.00000056,-0.00007528,0.00011618,0
 .00000804,-0.00011350,0.00035882,0.00016631,0.00010455,-0.00051607,-0.
 00021936,-0.00015610,-0.00005118,0.00000417,-0.00001324,0.00008363,0.0
 0015630,0.00004369,-0.00002199,-0.00004645,-0.00002728,-0.00009093,-0.
 00015546,-0.00007762,0.07021674,-0.07987024,-0.08582002,-0.10168199,0.
 11591768,0.10667439,0.00002351,-0.00004251,0.00000091,-0.00005593,0.00
 001215,-0.00006451,-0.00001439,0.00000215,0.00000245,0.00003644,-0.000
 00212,-0.00000016,-0.00001057,0.00000580,-0.00000365,0.00004753,-0.000
 01170,0.00002095,-0.00000267,-0.00000297,0.00000502,-0.00011277,0.0000
 4009,-0.00002189,-0.00000360,0.00000266,-0.00000317,0.00001050,0.00001
 035,0.00006220,0.00003394,0.00003037,0.00002988,0.00000039,0.00001777,
 -0.00002004,-0.00000970,0.00000448,-0.00000317,-0.00001125,-0.00000284
 ,0.00000801,-0.00000672,-0.00001683,0.00000135,-0.00000036,0.00000278,
 -0.00000665,0.00000690,0.00000203,-0.00000073,-0.00014629,-0.00001206,
 0.00009237,0.00006419,0.00002614,-0.00015415,-0.00003166,0.00031089,-0
 .00025036,-0.00004951,-0.00002974,-0.00004340,0.00001034,0.00001483,-0
 .00002595,-0.00044335,0.00002578,0.00055595,-0.00004279,-0.00002622,-0
 .00003104,0.00025937,-0.00008906,0.00029764,0.00004752,0.00002126,-0.0
 0007537,-0.00028931,-0.00093208,-0.00063312,-0.00009663,0.00003289,-0.
 00000441,0.00001617,-0.00002220,-0.00004704,-0.00034818,-0.00011153,0.
 00001704,-0.00018916,0.00004629,0.00010172,-0.00001379,0.00000321,0.00
 000224,-0.00006478,0.00003490,0.00000228,-0.00003221,0.00005643,-0.000
 02404,0.00050933,-0.00002053,0.00021477,0.00002061,-0.00000672,-0.0000
 7926,0.00014529,0.00018656,-0.00014282,0.00062863,-0.00064863,-0.00075
 438,-0.00090395,-0.00252735,0.00000690,-0.00009313,-0.00008158,-0.0000
 9681,0.00036329,-0.00034679,0.00013227,0.00002500,0.00018927,-0.000071
 89,0.00050086,0.00015117,0.00011927,-0.00004955,-0.00005007,-0.0000516
 6,0.00000043,0.00007216,0.00002229,-0.00005352,-0.00006479,0.00009806,
 -0.00003720,-0.00005883,-0.00002805,0.00010280,-0.00008689,0.00013178,
 0.00001297,0.00005258,-0.00001022,0.00002053,-0.00001337,0.00003551,-0
 .00001752,0.00003557,-0.00003177,0.00013393,0.00003518,-0.00018305,0.0
 0000552,-0.00004432,-0.00000390,-0.00000011,0.00003686,0.00000983,0.00
 000399,0.00006205,0.00006123,0.00016147,0.00006963,0.00001859,-0.00005
 499,-0.00002512,-0.00000264,0.00003655,0.00006715,-0.00000165,0.000021
 93,0.00010738,-0.00001061,0.00000845,0.00001141,0.00002731,-0.00001803
 ,0.00001888,-0.00002175,-0.00002178,-0.00007836,-0.00000676,0.00010121
 ,0.00001578,-0.00001062,0.00001372,0.00002953,0.00000236,-0.00001385,-
 0.00005760,0.00000044,0.00001981,-0.00000443,0.00000048,-0.00001566,0.
 00000930,0.00000945,-0.00023605,0.00040866,0.00035806,-0.00027367,0.00
 000577,-0.00006930,-0.00239619,0.00090459,-0.00796975,-0.00852842,-0.0
 0101664,0.00806180,0.00020109,0.00018519,0.00174439,0.00099005,-0.0009
 5721,0.00145237,-0.00000766,-0.00000201,-0.00000979,0.00001480,-0.0000
 2877,-0.00001492,0.00004349,-0.00002105,-0.00000998,-0.00000970,0.0000
 1263,-0.00000234,-0.00028287,-0.00052518,-0.00116784,0.00009797,-0.000
 21809,0.00014558,-0.00114412,0.00216020,0.00075257,0.00014793,-0.00036
 890,0.00016215,-0.00017226,0.00024890,-0.00014365,-0.00012846,0.000223
 40,-0.00006776,-0.00068651,-0.00023993,0.00040918,0.00060707,0.0000674
 7,-0.00008423,0.00038503,0.00010011,-0.00038646,0.00055024,0.00023232,
 0.00023676,-0.00079477,-0.00032251,-0.00030007,-0.00006737,0.00002816,
 -0.00003611,0.00009510,0.00025225,0.00018450,-0.00002136,-0.00007721,-
 0.00008661,-0.00010132,-0.00025511,-0.00017481,-0.03421626,0.02010461,
 -0.03602942,0.00043863,0.00137018,0.03256269,0.04535736,0.00004885,-0.
 00007378,-0.00000833,-0.00008696,0.00004148,-0.00005719,-0.00002743,-0
 .00002214,-0.00000595,0.00005152,0.00000489,0.00000049,-0.00001797,0.0
 0000770,0.00000919,0.00006363,0.00006228,-0.00000244,0.00001712,-0.000
 00574,0.00001941,-0.00000532,-0.00002616,0.00000478,0.00001503,-0.0000
 0104,0.00001090,0.00003115,0.00010008,-0.00000846,-0.00004316,0.000102
 21,0.00000392,0.00013421,-0.00005135,0.00005412,-0.00002965,0.00001084
 ,-0.00001382,-0.00010824,-0.00004120,-0.00000927,0.00001621,-0.0000376
 2,-0.00000787,0.00002653,-0.00000243,-0.00000915,-0.00005556,0.0000390
 5,0.00002223,-0.00001981,-0.00001670,-0.00008428,0.00019010,-0.0000776
 8,-0.00000428,0.00003944,0.00011775,-0.00026482,-0.00005158,-0.0000211
 2,0.00011972,0.00003528,0.00001382,-0.00002880,-0.00032557,-0.00009384
 ,0.00062300,0.00005189,0.00001824,0.00006444,-0.00002836,0.00004048,-0
 .00002483,0.00000388,0.00001720,-0.00001741,-0.00051028,-0.00049133,-0
 .00067308,0.00010831,-0.00004038,0.00026803,-0.00045525,0.00001999,0.0
 0000553,0.00034534,0.00008374,0.00004502,0.00013545,-0.00000642,-0.000
 48042,-0.00004172,0.00003965,0.00005015,0.00001696,-0.00017378,-0.0002
 0545,-0.00006625,0.00003675,-0.00004709,0.00028708,-0.00032264,-0.0002
 3300,0.00002323,0.00004671,0.00003789,0.00004213,-0.00021703,0.0006026
 0,-0.00035349,-0.00158473,-0.00122556,-0.00286388,-0.00234488,-0.00022
 775,-0.00000232,0.00040386,0.00003992,-0.00043992,-0.00049707,0.000362
 47,0.00008187,0.00017840,-0.00008184,0.00024853,-0.00174824,0.00077430
 ,-0.00025811,0.00015645,-0.00000143,0.00007348,0.00002271,0.00000966,-
 0.00007044,0.00001067,0.00004157,-0.00003848,0.00008278,-0.00005657,0.
 00009644,-0.00008539,0.00012031,-0.00002336,-0.00004899,0.00000313,-0.
 00002533,-0.00002159,0.00008470,0.00003705,0.00005693,-0.00000899,0.00
 020163,0.00008458,-0.00025132,-0.00005224,0.00006447,-0.00007218,-0.00
 000908,-0.00004478,-0.00000071,0.00003858,0.00009491,0.00007496,0.0001
 1438,-0.00000994,0.00004307,-0.00001075,0.00004171,-0.00000768,0.00002
 944,-0.00000113,0.00002096,0.00004253,-0.00004669,0.00001095,-0.000059
 39,-0.00003003,-0.00004486,-0.00000059,0.00005092,-0.00001192,0.000000
 52,-0.00002344,-0.00000742,0.00001886,-0.00007145,-0.00005949,-0.00011
 799,0.00005757,0.00012657,0.00000124,-0.00001754,-0.00000181,0.0000041
 4,-0.00001484,0.00001376,0.00001634,0.00005623,-0.00002771,0.00009877,
 0.00031897,0.00061707,0.00013125,0.00017873,-0.00023957,0.00270016,-0.
 00161990,0.00178626,-0.00156453,-0.00856711,-0.00308499,-0.00056935,0.
 00125935,-0.00100975,-0.00125079,-0.00104875,0.00005486,0.00001986,0.0
 0000036,-0.00000923,-0.00006473,-0.00004367,0.00000548,0.00001372,-0.0
 0005985,-0.00000167,-0.00001810,-0.00000154,0.00002267,-0.00040523,-0.
 00032022,0.00112947,-0.00029709,0.00031737,-0.00021268,0.00150725,-0.0
 0033073,0.00008094,-0.00027124,0.00001557,-0.00003863,0.00023570,-0.00
 008209,0.00002746,0.00008538,0.00002818,0.00002353,0.00012339,-0.00024
 265,-0.00027652,-0.00017862,0.00019493,0.00017447,-0.00003547,0.000041
 34,0.00014034,-0.00021647,-0.00033168,-0.00011528,0.00042424,0.0002976
 1,0.00015312,0.00003091,0.00004208,0.00000294,0.00010528,-0.00038818,0
 .00023242,-0.00007611,0.00013109,0.00002235,0.00016229,0.00038094,0.00
 003932,0.01923496,-0.04199646,0.05151662,0.00229298,0.00056087,-0.0374
 3548,-0.01870830,0.05741352,-0.00001248,0.00000750,-0.00001449,0.00003
 228,0.00000891,0.00003546,0.00000277,-0.00001247,0.00000419,-0.0000092
 6,0.00000377,0.00000616,0.00000909,0.00000806,-0.00002123,-0.00001845,
 0.00000223,-0.00000457,-0.00004076,0.00001898,-0.00004629,0.00007842,-
 0.00004501,0.00004389,-0.00007458,0.00003870,-0.00005654,0.00001772,-0
 .00000031,0.00008501,0.00000042,0.00001682,0.00002152,0.00002004,-0.00
 003073,-0.00001451,-0.00004104,0.00002097,-0.00002869,-0.00001336,-0.0
 0000286,-0.00000015,0.00000801,0.00000143,0.00000267,0.00000286,-0.000
 00347,-0.00002203,-0.00001281,0.00000267,0.00000520,-0.00008128,-0.000
 10513,0.00022882,-0.00009177,0.00012241,-0.00034596,0.00032005,0.00005
 823,-0.00032681,0.00008829,-0.00008339,-0.00039169,0.00000019,0.000035
 18,-0.00001660,-0.00053822,0.00032782,0.00089849,-0.00023957,0.0000305
 5,-0.00002878,0.00055682,-0.00018267,-0.00002730,0.00012254,0.00012138
 ,-0.00010375,-0.00056335,-0.00106231,0.00028707,0.00003408,0.00002321,
 0.00007250,0.00006884,0.00006767,-0.00034032,-0.00010756,-0.00011956,-
 0.00033821,0.00018019,0.00009048,-0.00012095,0.00001587,-0.00004832,-0
 .00001995,-0.00016052,0.00007680,0.00114529,-0.00013466,0.00006307,-0.
 00000725,0.00012537,-0.00038935,-0.00013478,-0.00002121,-0.00018802,-0
 .00017951,-0.00009974,0.00079826,-0.00015613,-0.00064884,-0.00137294,0
 .00034292,0.00066290,0.00032400,0.00190699,-0.00032855,-0.00090050,-0.
 00040623,0.00028930,0.00035240,0.00018813,0.00017458,0.00060393,-0.000
 23451,0.00022707,0.00160529,0.00089630,-0.00000384,0.00013460,0.000221
 69,0.00000420,0.00003489,-0.00004527,0.00009664,-0.00001512,0.00007690
 ,-0.00002857,-0.00023524,0.00006025,0.00020809,0.00015615,0.00046552,-
 0.00001154,0.00001234,-0.00002298,0.00009746,0.00011203,-0.00003614,-0
 .00002334,0.00001335,-0.00013342,-0.00003195,0.00004579,0.00003615,0.0
 0002826,-0.00024135,0.00010310,-0.00001391,-0.00000595,-0.00000458,0.0
 0002047,0.00000432,-0.00002308,-0.00002130,0.00004576,-0.00001306,-0.0
 0002833,-0.00008714,-0.00002412,0.00010831,0.00024445,-0.00006950,-0.0
 0001305,-0.00000329,0.00039470,0.00004446,-0.00009528,0.00049220,-0.00
 000391,-0.00001385,-0.00012289,-0.00003455,-0.00004932,-0.00001158,0.0
 0001120,-0.00018758,0.00012152,0.00012646,-0.00012370,-0.00009453,-0.0
 0001070,-0.00000653,0.00000923,0.00001956,0.00005871,-0.00004987,-0.00
 001847,-0.00007641,0.00005222,0.00000699,0.00051853,-0.00070346,-0.000
 46480,-0.00051628,-0.00017780,-0.03204587,0.00775558,-0.00230884,0.019
 22489,-0.00682478,0.00756322,0.00891079,-0.00249696,0.00937380,0.01002
 084,-0.00297084,-0.00738483,0.00001110,-0.00001472,-0.00004590,-0.0000
 1426,0.00000096,-0.00000260,-0.00001359,0.00000171,0.00000205,0.000019
 73,0.00000978,-0.00003761,-0.00305113,0.00183102,-0.00396252,0.0002410
 3,-0.00025331,0.00005760,0.00149420,0.00207381,0.00571515,0.00129445,-
 0.00146931,-0.00013753,-0.00169722,0.00166147,0.00001780,-0.00030895,0
 .00042756,0.00005448,-0.00162320,-0.00060300,0.00158106,0.00159249,0.0
 0023852,-0.00120024,0.00105059,0.00025301,-0.00133963,0.00134777,0.000
 55323,0.00007909,-0.00173786,-0.00068394,-0.00041439,-0.00026715,0.000
 03158,0.00003932,0.00072264,0.00143829,-0.00005993,-0.00025937,-0.0002
 1357,0.00006164,-0.00087213,-0.00166395,-0.00054595,-0.00537516,0.0138
 8217,-0.40551482,0.00015872,0.00002822,-0.01592975,0.00131316,-0.01300
 007,0.41105481\\0.00000007,-0.00000024,0.00000057,0.00000033,0.0000002
 7,0.00000041,0.00000010,-0.00000053,0.00000043,0.00000015,-0.00000039,
 0.00000024,0.00000004,0.00000006,0.00000042,-0.00000046,-0.00000046,-0
 .00000051,0.00000015,-0.00000055,0.00000009,0.00000011,-0.00000052,-0.
 00000048,0.00000001,-0.00000035,-0.00000040,-0.00000010,-0.00000009,-0
 .00000027,0.00000009,0.00000039,-0.00000113,-0.00000030,-0.00000033,-0
 .00000031,-0.00000019,-0.00000030,-0.00000127,-0.00000012,0.00000008,-
 0.00000105,-0.00000018,0.00000019,-0.00000149,-0.00000037,0.00000046,-
 0.00000145,-0.00000018,0.00000002,-0.00000133,-0.00000030,-0.00000039,
 0.00000014,0.00000039,0.00000008,0.00000035,-0.00000018,-0.00000043,0.
 00000092,0.00000013,0.00000058,0.00000077,0.00000007,0.00000029,0.0000
 0037,0.00000066,-0.00000056,0.00000034,0.00000012,-0.00000066,0.000000
 10,-0.00000012,0.00000032,0.00000069,0.00000004,0.00000006,0.00000079,
 0.00000017,-0.00000041,0.00000050,-0.00000031,-0.00000008,-0.00000168,
 0.00000019,0.00000011,-0.00000066,0.00000018,-0.00000033,-0.00000021,-
 0.00000004,0.00000020,-0.00000132,-0.00000015,0.00000043,-0.00000067,-
 0.00000022,-0.00000034,-0.00000066,-0.00000024,-0.00000059,-0.00000105
 ,-0.00000048,0.00000004,0.00000051,-0.00000023,0.00000050,-0.00000073,
 0.00000004,-0.00000069,-0.00000099,0.00000006,-0.00000019,-0.00000016,
 -0.00000009,-0.00000032,-0.00000054,-0.00000031,0.00000042,-0.00000064
 ,-0.00000002,-0.00000009,0.00000045,-0.00000021,0.00000046,0.00000098,
 0.00000040,0.00000030,0.00000070,-0.00000011,0.00000004,-0.00000024,-0
 .00000002,0.00000012,-0.00000075,-0.00000002,-0.00000028,-0.00000057,-
 0.00000030,-0.00000009,-0.00000036,-0.00000006,0.00000022,-0.00000045,
 -0.00000004,-0.00000041,-0.00000124,-0.00000015,-0.00000077,-0.0000010
 6,-0.00000023,-0.00000048,-0.00000115,0.00000030,0.00000022,-0.0000014
 1,0.00000005,0.00000029,-0.00000061,-0.00000069,0.00000051,-0.00000100
 ,-0.00000034,0.00000017,-0.00000100,0.00000030,0.00000044,0.00000051,0
 .00000014,0.00000004,0.00000139,-0.00000015,0.00000053,0.00000148,0.00
 000036,0.00000006,0.00000095,0.00000022,-0.00000009,0.00000131,0.00000
 024,-0.00000037,0.00000143,0.00000019,-0.00000052,0.00000110,0.0000001
 0,-0.00000069,0.00000107,0.00000032,0.00000048,0.00000113,-0.00000002,
 0.00000013,0.00000123,0.00000016,0.00000048,0.00000122,0.00000023,0.00
 000026,0.00000155,0.00000007,-0.00000034,-0.00000073,0.00000047,-0.000
 00050,0.00000146,0.00000092,-0.00000021,0.00000044,0.00000006,-0.00000
 018,-0.00000029,-0.00000038,0.00000143,-0.00000014,-0.00000036,0.00000
 039,0.00000030,-0.00000014,0.00000035,-0.00000047,-0.00000013,-0.00000
 005,-0.00000069,0.00000021,-0.00000022,-0.00000023,0.,0.00000018,-0.00
 000003,0.00000064,-0.00000064,0.00000051,-0.00000038,-0.00000065,0.000
 00112,0.00000001,-0.00000055,0.00000046,0.00000030,0.00000029,0.000000
 95,-0.00000016,0.00000064,0.00000081,0.00000035,0.00000041,0.00000050,
 0.00000061,-0.00000107,0.00000213,-0.00000086,0.00000203,-0.00000183,-
 0.00000014,0.00000059,-0.00000031,-0.00000006,0.00000046,-0.00000013,-
 0.00000031,-0.00000001,0.00000021,0.00000030,0.00000062,0.00000057,-0.
 00000024,0.00000035,-0.00000036,-0.00000020,0.00000074,0.,0.00000011,0
 .00000077,0.00000010,-0.00000012,-0.00000041,0.00000046,0.00000019,-0.
 00000076,0.00000015,0.00000006,-0.00000039,-0.00000022\\\@


 IT IS A PROFOUNDLY ERRONEOUS TRUISM ... THAT WE SHOULD CULTIVATE
 THE HABIT OF THINKING OF WHAT WE ARE DOING.
 THE PRECISE OPPOSITE IS THE CASE.
 CIVILIZATION ADVANCES BY EXTENDING THE NUMBER OF IMPORTANT OPERATIONS
 WHICH WE CAN PERFORM WITHOUT THINKING ABOUT THEM.

                                    -- ALFRED NORTH WHITEHEAD
 Job cpu time:      20 days 12 hours 39 minutes 38.5 seconds.
 Elapsed time:       1 days  0 hours 54 minutes 32.9 seconds.
 File lengths (MBytes):  RWF=  38654 Int=      0 D2E=      0 Chk=    195 Scr=      1
 Normal termination of Gaussian 16 at Mon Mar 11 01:42:21 2024.
