 Entering Gaussian System, Link 0=g16
 Input=8water-ofreq-v2.gjf
 Output=8water-ofreq-v2.log
 Initial command:
 /packages/apps/gaussian/g16/g16/l1.exe "/scratch/mdturne9/2-6-methyl/oFreq/Gau-3978640.inp" -scrdir="/scratch/mdturne9/2-6-methyl/oFreq/"
 Entering Link 1 = /packages/apps/gaussian/g16/g16/l1.exe PID=   3978642.
  
 Copyright (c) 1988,1990,1992,1993,1995,1998,2003,2009,2016,
            Gaussian, Inc.  All Rights Reserved.
  
 This is part of the Gaussian(R) 16 program.  It is based on
 the Gaussian(R) 09 system (copyright 2009, Gaussian, Inc.),
 the Gaussian(R) 03 system (copyright 2003, Gaussian, Inc.),
 the Gaussian(R) 98 system (copyright 1998, Gaussian, Inc.),
 the Gaussian(R) 94 system (copyright 1995, Gaussian, Inc.),
 the Gaussian 92(TM) system (copyright 1992, Gaussian, Inc.),
 the Gaussian 90(TM) system (copyright 1990, Gaussian, Inc.),
 the Gaussian 88(TM) system (copyright 1988, Gaussian, Inc.),
 the Gaussian 86(TM) system (copyright 1986, Carnegie Mellon
 University), and the Gaussian 82(TM) system (copyright 1983,
 Carnegie Mellon University). Gaussian is a federally registered
 trademark of Gaussian, Inc.
  
 This software contains proprietary and confidential information,
 including trade secrets, belonging to Gaussian, Inc.
  
 This software is provided under written license and may be
 used, copied, transmitted, or stored only in accord with that
 written license.
  
 The following legend is applicable only to US Government
 contracts under FAR:
  
                    RESTRICTED RIGHTS LEGEND
  
 Use, reproduction and disclosure by the US Government is
 subject to restrictions as set forth in subparagraphs (a)
 and (c) of the Commercial Computer Software - Restricted
 Rights clause in FAR 52.227-19.
  
 Gaussian, Inc.
 340 Quinnipiac St., Bldg. 40, Wallingford CT 06492
  
  
 ---------------------------------------------------------------
 Warning -- This program may not be used in any manner that
 competes with the business of Gaussian, Inc. or will provide
 assistance to any competitor of Gaussian, Inc.  The licensee
 of this program is prohibited from giving any competitor of
 Gaussian, Inc. access to this program.  By using this program,
 the user acknowledges that Gaussian, Inc. is engaged in the
 business of creating and licensing software in the field of
 computational chemistry and represents and warrants to the
 licensee that it is not a competitor of Gaussian, Inc. and that
 it will not use this program in any manner prohibited above.
 ---------------------------------------------------------------
  

 Cite this work as:
 Gaussian 16, Revision A.03,
 M. J. Frisch, G. W. Trucks, H. B. Schlegel, G. E. Scuseria, 
 M. A. Robb, J. R. Cheeseman, G. Scalmani, V. Barone, 
 G. A. Petersson, H. Nakatsuji, X. Li, M. Caricato, A. V. Marenich, 
 J. Bloino, B. G. Janesko, R. Gomperts, B. Mennucci, H. P. Hratchian, 
 J. V. Ortiz, A. F. Izmaylov, J. L. Sonnenberg, D. Williams-Young, 
 F. Ding, F. Lipparini, F. Egidi, J. Goings, B. Peng, A. Petrone, 
 T. Henderson, D. Ranasinghe, V. G. Zakrzewski, J. Gao, N. Rega, 
 G. Zheng, W. Liang, M. Hada, M. Ehara, K. Toyota, R. Fukuda, 
 J. Hasegawa, M. Ishida, T. Nakajima, Y. Honda, O. Kitao, H. Nakai, 
 T. Vreven, K. Throssell, J. A. Montgomery, Jr., J. E. Peralta, 
 F. Ogliaro, M. J. Bearpark, J. J. Heyd, E. N. Brothers, K. N. Kudin, 
 V. N. Staroverov, T. A. Keith, R. Kobayashi, J. Normand, 
 K. Raghavachari, A. P. Rendell, J. C. Burant, S. S. Iyengar, 
 J. Tomasi, M. Cossi, J. M. Millam, M. Klene, C. Adamo, R. Cammi, 
 J. W. Ochterski, R. L. Martin, K. Morokuma, O. Farkas, 
 J. B. Foresman, and D. J. Fox, Gaussian, Inc., Wallingford CT, 2016.
 
 ******************************************
 Gaussian 16:  ES64L-G16RevA.03 25-Dec-2016
                11-Mar-2024 
 ******************************************
 %oldchk=8water-ofreq.chk
 %nprocshared=20
 Will use up to   20 processors via shared memory.
 %mem=11GB
 %chk=8water-ofreq-v2.chk
 Copying data from "8water-ofreq.chk" to current chk file "8water-ofreq-v2.chk"
 IOpt=  2 FromEx=T IUOpen= 4 IOptOp= 5 NList=   0 IFRang= 0 IUIn= 4 IUOut= 2.
 ---------------------------------------------------
 #p opt=readfc freq wb97xd/6-311+g(2d,2p) guess=read
 ---------------------------------------------------
 1/10=3,18=20,19=15,26=3,38=1/1,3;
 2/9=110,12=2,17=6,18=5,40=1/2;
 3/5=4,6=6,7=212,11=2,25=1,30=1,71=1,74=-58,116=-2/1,2,3;
 4/5=1/1;
 5/5=2,38=6/2;
 6/7=2,8=2,9=2,10=2,28=1/1;
 7//1,2,3,16;
 1/18=20,19=15,26=3/3(2);
 2/9=110/2;
 99//99;
 2/9=110/2;
 3/5=4,6=6,7=212,11=2,25=1,30=1,71=1,74=-58/1,2,3;
 4/5=5,16=3,69=1/1;
 5/5=2,38=5/2;
 7//1,2,3,16;
 1/18=20,19=15,26=3/3(-5);
 2/9=110/2;
 6/7=2,8=2,9=2,10=2,19=2,28=1/1;
 99/9=1/99;
 Leave Link    1 at Mon Mar 11 13:33:56 2024, MaxMem=  1476395008 cpu:              44.3 elap:               2.4
 (Enter /packages/apps/gaussian/g16/g16/l101.exe)
 --------
 Required
 --------
 Symbolic Z-matrix:
 Charge =  0 Multiplicity = 1
 C                    0    -5.9293    3.01518  -0.5127   L 
 C                    0    -5.01721   1.81737  -0.79028  L 
 H                    0    -5.67412   3.86025  -1.15246  L 
 H                    0    -6.97325   2.75336  -0.69093  L 
 H                    0    -5.84046   3.34205   0.52501  L 
 C                    0    -5.39301   0.62116   0.09692  L 
 H                    0    -5.1647    1.51618  -1.83131  L 
 C                    0    -4.62299  -0.65435  -0.22618  L 
 H                    0    -4.87552  -0.97788  -1.24166  L 
 H                    0    -3.55089  -0.44759  -0.2328   L 
 C                    0    -4.91566  -1.78238   0.75722  L 
 C                    0    -4.3238   -3.14047   0.34987  L 
 H                    0    -4.75308  -3.39962  -0.62244  L 
 C                    0    -4.72937  -4.23226   1.34161  L 
 H                    0    -4.31914  -5.19986   1.05172  L 
 H                    0    -4.37584  -4.00629   2.34872  L 
 H                    0    -5.8157   -4.32093   1.38696  L 
 C                    0    -3.55636   2.18443  -0.631    L 
 C                    0    -3.05091   2.55804   0.61394  L 
 C                    0    -2.67112   2.10434  -1.69884  L 
 C                    0    -1.7061    2.82527   0.78275  L 
 H                    0    -3.70729   2.60372   1.47348  L 
 C                    0    -1.32049   2.38208  -1.53716  L 
 H                    0    -3.03018   1.77816  -2.66666  L 
 C                    0    -0.82389   2.75161  -0.29432  L 
 H                    0    -1.32653   3.04479   1.77196  L 
 H                    0    -0.64169   2.22915  -2.36673  L 
 C                    0    -2.82296  -3.06061   0.1598   L 
 C                    0    -1.95362  -2.949     1.24332  L 
 C                    0    -2.27973  -3.03165  -1.12059  L 
 C                    0    -0.58603  -2.84297   1.05196  L 
 H                    0    -2.34346  -2.91887   2.25229  L 
 C                    0    -0.91454  -2.90811  -1.31726  L 
 H                    0    -2.93885  -3.07288  -1.97875  L 
 C                    0    -0.04909  -2.84202  -0.23167  L 
 H                    0     0.06683  -2.7163    1.90625  L 
 H                    0    -0.52406  -2.80693  -2.3213   L 
 C                    0     1.42258  -2.67069  -0.4437   L 
 H                    0     1.6172   -2.10638  -1.35036  L 
 H                    0     1.88582  -2.17305   0.39988  L 
 C                    0     0.64686   2.9258   -0.07308  L 
 H                    0     0.92282   2.54399   0.90306  L 
 H                    0     1.21873   2.41112  -0.83741  L 
 C                    0     3.6405   -3.58948  -0.82245  L 
 H                    0     4.2214   -4.49966  -0.95403  L 
 H                    0     3.69665  -2.95854  -1.707    L 
 H                    0     3.99963  -3.03718   0.03952  L 
 C                    0     1.72657  -4.76199  -1.74317  L 
 H                    0     0.69335  -5.04716  -1.57108  L 
 H                    0     1.79818  -4.14929  -2.63845  L 
 H                    0     2.34976  -5.64728  -1.84521  L 
 C                    0     2.11945  -4.76585   0.66544  L 
 H                    0     2.47487  -4.14176   1.48481  L 
 H                    0     1.08303  -5.05032   0.82264  L 
 H                    0     2.74043  -5.65242   0.55736  L 
 C                    0     2.58576   4.32454   0.34916  L 
 H                    0     2.98795   5.33439   0.30333  L 
 H                    0     2.62016   3.94515   1.36575  L 
 H                    0     3.13235   3.66533  -0.31763  L 
 C                    0     1.07288   4.90814  -1.46722  L 
 H                    0     1.43436   5.93403  -1.46374  L 
 H                    0     0.03699   4.87556  -1.79441  L 
 H                    0     1.694     4.29044  -2.11241  L 
 C                    0     0.39731   5.21777   0.86081  L 
 H                    0    -0.63742   5.28185   0.53942  L 
 H                    0     0.4643    4.76371   1.84702  L 
 H                    0     0.85046   6.20637   0.87029  L 
 N                    0     2.21373  -3.96868  -0.58885  L 
 N                    0     1.15668   4.36383  -0.08818  L 
 C                    0     2.08409   0.24966   0.47544  L 
 O                    0     0.94718   0.12147  -0.04025  L 
 O                    0     2.25596   0.31082   1.74853  L 
 O                    0     3.15773   0.3229   -0.28832  L 
 H                    0    -4.53466  -1.50756   1.74608  L 
 H                    0    -5.99812  -1.90241   0.86611  L 
 H                    0    -6.46609   0.43489  -0.00615  L 
 H                    0    -5.23216   0.88817   1.14612  L 
 O                    0     3.55508   2.31834  -2.09623  L 
 H                    0     4.48398   2.49316  -1.94176  L 
 H                    0     3.34042   1.59679  -1.46669  L 
 O                    0     4.84156   2.00142   1.18225  L 
 H                    0     4.58      1.87363   2.09468  L 
 H                    0     4.22609   1.41903   0.69864  L 
 O                    0     1.38991   2.62708   3.08766  L 
 H                    0     1.91671   1.90791   2.69661  L 
 H                    0     0.56402   2.15908   3.26448  L 
 O                    0    -0.37626   0.33082   2.64972  L 
 H                    0    -0.79902   0.31513   1.78779  L 
 H                    0     0.55599   0.17294   2.39816  L 
 O                    0     5.30491  -1.13371   0.6297   L 
 H                    0     4.53785  -0.62955   0.28496  L 
 H                    0     5.86565  -0.45162   1.0033   L 
 O                    0     3.29942  -2.20564   2.35541  L 
 H                    0     4.16579  -1.97584   1.99119  L 
 H                    0     2.85006  -1.34126   2.33931  L 
 O                    0     3.22645  -0.93139  -2.69455  L 
 H                    0     3.68989  -0.29728  -3.24282  L 
 H                    0     3.17345  -0.49278  -1.81324  L 
 O                    0     0.39747  -0.13997  -2.72178  L 
 H                    0     0.53286  -0.01593  -1.76082  L 
 H                    0     1.28317  -0.36027  -3.02836  L 
 
 Add virtual bond connecting atoms H98        and O73        Dist= 3.27D+00.
 Add virtual bond connecting atoms H80        and O73        Dist= 3.30D+00.
 Add virtual bond connecting atoms H91        and O73        Dist= 3.35D+00.
 Add virtual bond connecting atoms H100       and O71        Dist= 3.35D+00.
 Add virtual bond connecting atoms H83        and O73        Dist= 3.44D+00.
 Add virtual bond connecting atoms H89        and O72        Dist= 3.45D+00.
 Add virtual bond connecting atoms H94        and O90        Dist= 3.71D+00.
 Add virtual bond connecting atoms H95        and O72        Dist= 3.50D+00.
 Add virtual bond connecting atoms H85        and O72        Dist= 3.57D+00.
 Add virtual bond connecting atoms O78        and H59        Dist= 4.29D+00.
 Add virtual bond connecting atoms O84        and H42        Dist= 4.22D+00.
 Add virtual bond connecting atoms H85        and H42        Dist= 4.06D+00.
 Add virtual bond connecting atoms O93        and H53        Dist= 4.30D+00.
 Add virtual bond connecting atoms H94        and H47        Dist= 4.21D+00.
 Add atom     84 valence  3 ND=      2 dihedral      42     84     85     86
 ITRead=  0  0  0  0  0  0  0  0  0  0  0  0  0  0  0  0  0  0  0  0
 ITRead=  0  0  0  0  0  0  0  0  0  0  0  0  0  0  0  0  0  0  0  0
 ITRead=  0  0  0  0  0  0  0  0  0  0  0  0  0  0  0  0  0  0  0  0
 ITRead=  0  0  0  0  0  0  0  0  0  0  0  0  0  0  0  0  0  0  0  0
 ITRead=  0  0  0  0  0  0  0  0  0  0  0  0  0  0  0  0  0  0  0  0
 ITRead=  0
 MicOpt= -1 -1 -1 -1 -1 -1 -1 -1 -1 -1 -1 -1 -1 -1 -1 -1 -1 -1 -1 -1
 MicOpt= -1 -1 -1 -1 -1 -1 -1 -1 -1 -1 -1 -1 -1 -1 -1 -1 -1 -1 -1 -1
 MicOpt= -1 -1 -1 -1 -1 -1 -1 -1 -1 -1 -1 -1 -1 -1 -1 -1 -1 -1 -1 -1
 MicOpt= -1 -1 -1 -1 -1 -1 -1 -1 -1 -1 -1 -1 -1 -1 -1 -1 -1 -1 -1 -1
 MicOpt= -1 -1 -1 -1 -1 -1 -1 -1 -1 -1 -1 -1 -1 -1 -1 -1 -1 -1 -1 -1
 MicOpt= -1
 NAtoms=    101 NQM=      101 NQMF=       0 NMMI=      0 NMMIF=      0
                NMic=       0 NMicF=      0.
                    Isotopes and Nuclear Properties:
 (Nuclear quadrupole moments (NQMom) in fm**2, nuclear magnetic moments (NMagM)
  in nuclear magnetons)

  Atom         1           2           3           4           5           6           7           8           9          10
 IAtWgt=          12          12           1           1           1          12           1          12           1           1
 AtmWgt=  12.0000000  12.0000000   1.0078250   1.0078250   1.0078250  12.0000000   1.0078250  12.0000000   1.0078250   1.0078250
 NucSpn=           0           0           1           1           1           0           1           0           1           1
 AtZEff=  -0.0000000  -0.0000000  -0.0000000  -0.0000000  -0.0000000  -0.0000000  -0.0000000  -0.0000000  -0.0000000  -0.0000000
 NQMom=    0.0000000   0.0000000   0.0000000   0.0000000   0.0000000   0.0000000   0.0000000   0.0000000   0.0000000   0.0000000
 NMagM=    0.0000000   0.0000000   2.7928460   2.7928460   2.7928460   0.0000000   2.7928460   0.0000000   2.7928460   2.7928460
 AtZNuc=   6.0000000   6.0000000   1.0000000   1.0000000   1.0000000   6.0000000   1.0000000   6.0000000   1.0000000   1.0000000

  Atom        11          12          13          14          15          16          17          18          19          20
 IAtWgt=          12          12           1          12           1           1           1          12          12          12
 AtmWgt=  12.0000000  12.0000000   1.0078250  12.0000000   1.0078250   1.0078250   1.0078250  12.0000000  12.0000000  12.0000000
 NucSpn=           0           0           1           0           1           1           1           0           0           0
 AtZEff=  -0.0000000  -0.0000000  -0.0000000  -0.0000000  -0.0000000  -0.0000000  -0.0000000  -0.0000000  -0.0000000  -0.0000000
 NQMom=    0.0000000   0.0000000   0.0000000   0.0000000   0.0000000   0.0000000   0.0000000   0.0000000   0.0000000   0.0000000
 NMagM=    0.0000000   0.0000000   2.7928460   0.0000000   2.7928460   2.7928460   2.7928460   0.0000000   0.0000000   0.0000000
 AtZNuc=   6.0000000   6.0000000   1.0000000   6.0000000   1.0000000   1.0000000   1.0000000   6.0000000   6.0000000   6.0000000

  Atom        21          22          23          24          25          26          27          28          29          30
 IAtWgt=          12           1          12           1          12           1           1          12          12          12
 AtmWgt=  12.0000000   1.0078250  12.0000000   1.0078250  12.0000000   1.0078250   1.0078250  12.0000000  12.0000000  12.0000000
 NucSpn=           0           1           0           1           0           1           1           0           0           0
 AtZEff=  -0.0000000  -0.0000000  -0.0000000  -0.0000000  -0.0000000  -0.0000000  -0.0000000  -0.0000000  -0.0000000  -0.0000000
 NQMom=    0.0000000   0.0000000   0.0000000   0.0000000   0.0000000   0.0000000   0.0000000   0.0000000   0.0000000   0.0000000
 NMagM=    0.0000000   2.7928460   0.0000000   2.7928460   0.0000000   2.7928460   2.7928460   0.0000000   0.0000000   0.0000000
 AtZNuc=   6.0000000   1.0000000   6.0000000   1.0000000   6.0000000   1.0000000   1.0000000   6.0000000   6.0000000   6.0000000

  Atom        31          32          33          34          35          36          37          38          39          40
 IAtWgt=          12           1          12           1          12           1           1          12           1           1
 AtmWgt=  12.0000000   1.0078250  12.0000000   1.0078250  12.0000000   1.0078250   1.0078250  12.0000000   1.0078250   1.0078250
 NucSpn=           0           1           0           1           0           1           1           0           1           1
 AtZEff=  -0.0000000  -0.0000000  -0.0000000  -0.0000000  -0.0000000  -0.0000000  -0.0000000  -0.0000000  -0.0000000  -0.0000000
 NQMom=    0.0000000   0.0000000   0.0000000   0.0000000   0.0000000   0.0000000   0.0000000   0.0000000   0.0000000   0.0000000
 NMagM=    0.0000000   2.7928460   0.0000000   2.7928460   0.0000000   2.7928460   2.7928460   0.0000000   2.7928460   2.7928460
 AtZNuc=   6.0000000   1.0000000   6.0000000   1.0000000   6.0000000   1.0000000   1.0000000   6.0000000   1.0000000   1.0000000

  Atom        41          42          43          44          45          46          47          48          49          50
 IAtWgt=          12           1           1          12           1           1           1          12           1           1
 AtmWgt=  12.0000000   1.0078250   1.0078250  12.0000000   1.0078250   1.0078250   1.0078250  12.0000000   1.0078250   1.0078250
 NucSpn=           0           1           1           0           1           1           1           0           1           1
 AtZEff=  -0.0000000  -0.0000000  -0.0000000  -0.0000000  -0.0000000  -0.0000000  -0.0000000  -0.0000000  -0.0000000  -0.0000000
 NQMom=    0.0000000   0.0000000   0.0000000   0.0000000   0.0000000   0.0000000   0.0000000   0.0000000   0.0000000   0.0000000
 NMagM=    0.0000000   2.7928460   2.7928460   0.0000000   2.7928460   2.7928460   2.7928460   0.0000000   2.7928460   2.7928460
 AtZNuc=   6.0000000   1.0000000   1.0000000   6.0000000   1.0000000   1.0000000   1.0000000   6.0000000   1.0000000   1.0000000

  Atom        51          52          53          54          55          56          57          58          59          60
 IAtWgt=           1          12           1           1           1          12           1           1           1          12
 AtmWgt=   1.0078250  12.0000000   1.0078250   1.0078250   1.0078250  12.0000000   1.0078250   1.0078250   1.0078250  12.0000000
 NucSpn=           1           0           1           1           1           0           1           1           1           0
 AtZEff=  -0.0000000  -0.0000000  -0.0000000  -0.0000000  -0.0000000  -0.0000000  -0.0000000  -0.0000000  -0.0000000  -0.0000000
 NQMom=    0.0000000   0.0000000   0.0000000   0.0000000   0.0000000   0.0000000   0.0000000   0.0000000   0.0000000   0.0000000
 NMagM=    2.7928460   0.0000000   2.7928460   2.7928460   2.7928460   0.0000000   2.7928460   2.7928460   2.7928460   0.0000000
 AtZNuc=   1.0000000   6.0000000   1.0000000   1.0000000   1.0000000   6.0000000   1.0000000   1.0000000   1.0000000   6.0000000

  Atom        61          62          63          64          65          66          67          68          69          70
 IAtWgt=           1           1           1          12           1           1           1          14          14          12
 AtmWgt=   1.0078250   1.0078250   1.0078250  12.0000000   1.0078250   1.0078250   1.0078250  14.0030740  14.0030740  12.0000000
 NucSpn=           1           1           1           0           1           1           1           2           2           0
 AtZEff=  -0.0000000  -0.0000000  -0.0000000  -0.0000000  -0.0000000  -0.0000000  -0.0000000  -0.0000000  -0.0000000  -0.0000000
 NQMom=    0.0000000   0.0000000   0.0000000   0.0000000   0.0000000   0.0000000   0.0000000   2.0440000   2.0440000   0.0000000
 NMagM=    2.7928460   2.7928460   2.7928460   0.0000000   2.7928460   2.7928460   2.7928460   0.4037610   0.4037610   0.0000000
 AtZNuc=   1.0000000   1.0000000   1.0000000   6.0000000   1.0000000   1.0000000   1.0000000   7.0000000   7.0000000   6.0000000

  Atom        71          72          73          74          75          76          77          78          79          80
 IAtWgt=          16          16          16           1           1           1           1          16           1           1
 AtmWgt=  15.9949146  15.9949146  15.9949146   1.0078250   1.0078250   1.0078250   1.0078250  15.9949146   1.0078250   1.0078250
 NucSpn=           0           0           0           1           1           1           1           0           1           1
 AtZEff=  -0.0000000  -0.0000000  -0.0000000  -0.0000000  -0.0000000  -0.0000000  -0.0000000  -0.0000000  -0.0000000  -0.0000000
 NQMom=    0.0000000   0.0000000   0.0000000   0.0000000   0.0000000   0.0000000   0.0000000   0.0000000   0.0000000   0.0000000
 NMagM=    0.0000000   0.0000000   0.0000000   2.7928460   2.7928460   2.7928460   2.7928460   0.0000000   2.7928460   2.7928460
 AtZNuc=   8.0000000   8.0000000   8.0000000   1.0000000   1.0000000   1.0000000   1.0000000   8.0000000   1.0000000   1.0000000

  Atom        81          82          83          84          85          86          87          88          89          90
 IAtWgt=          16           1           1          16           1           1          16           1           1          16
 AtmWgt=  15.9949146   1.0078250   1.0078250  15.9949146   1.0078250   1.0078250  15.9949146   1.0078250   1.0078250  15.9949146
 NucSpn=           0           1           1           0           1           1           0           1           1           0
 AtZEff=  -0.0000000  -0.0000000  -0.0000000  -0.0000000  -0.0000000  -0.0000000  -0.0000000  -0.0000000  -0.0000000  -0.0000000
 NQMom=    0.0000000   0.0000000   0.0000000   0.0000000   0.0000000   0.0000000   0.0000000   0.0000000   0.0000000   0.0000000
 NMagM=    0.0000000   2.7928460   2.7928460   0.0000000   2.7928460   2.7928460   0.0000000   2.7928460   2.7928460   0.0000000
 AtZNuc=   8.0000000   1.0000000   1.0000000   8.0000000   1.0000000   1.0000000   8.0000000   1.0000000   1.0000000   8.0000000

  Atom        91          92          93          94          95          96          97          98          99         100
 IAtWgt=           1           1          16           1           1          16           1           1          16           1
 AtmWgt=   1.0078250   1.0078250  15.9949146   1.0078250   1.0078250  15.9949146   1.0078250   1.0078250  15.9949146   1.0078250
 NucSpn=           1           1           0           1           1           0           1           1           0           1
 AtZEff=  -0.0000000  -0.0000000  -0.0000000  -0.0000000  -0.0000000  -0.0000000  -0.0000000  -0.0000000  -0.0000000  -0.0000000
 NQMom=    0.0000000   0.0000000   0.0000000   0.0000000   0.0000000   0.0000000   0.0000000   0.0000000   0.0000000   0.0000000
 NMagM=    2.7928460   2.7928460   0.0000000   2.7928460   2.7928460   0.0000000   2.7928460   2.7928460   0.0000000   2.7928460
 AtZNuc=   1.0000000   1.0000000   8.0000000   1.0000000   1.0000000   8.0000000   1.0000000   1.0000000   8.0000000   1.0000000

  Atom       101
 IAtWgt=           1
 AtmWgt=   1.0078250
 NucSpn=           1
 AtZEff=  -0.0000000
 NQMom=    0.0000000
 NMagM=    2.7928460
 AtZNuc=   1.0000000
 Leave Link  101 at Mon Mar 11 13:33:57 2024, MaxMem=  1476395008 cpu:               7.4 elap:               0.4
 (Enter /packages/apps/gaussian/g16/g16/l103.exe)

 GradGradGradGradGradGradGradGradGradGradGradGradGradGradGradGradGradGrad
 Berny optimization.
 Initialization pass.
 Force constant matrix read from checkpoint file:
 "8water-ofreq-v2.chk"
 NVar current= 589 chk= 589 common= 589.
                           ----------------------------
                           !    Initial Parameters    !
                           ! (Angstroms and Degrees)  !
 --------------------------                            --------------------------
 ! Name  Definition              Value          Derivative Info.                !
 --------------------------------------------------------------------------------
 ! R1    R(1,2)                  1.5309         D2E/DX2 =    0.2817             !
 ! R2    R(1,3)                  1.0902         D2E/DX2 =    0.3414             !
 ! R3    R(1,4)                  1.0909         D2E/DX2 =    0.3397             !
 ! R4    R(1,5)                  1.0916         D2E/DX2 =    0.3388             !
 ! R5    R(2,6)                  1.536          D2E/DX2 =    0.2742             !
 ! R6    R(2,7)                  1.0937         D2E/DX2 =    0.3294             !
 ! R7    R(2,18)                 1.5147         D2E/DX2 =    0.2911             !
 ! R8    R(6,8)                  1.5245         D2E/DX2 =    0.2847             !
 ! R9    R(6,76)                 1.094          D2E/DX2 =    0.3306             !
 ! R10   R(6,77)                 1.0945         D2E/DX2 =    0.3306             !
 ! R11   R(8,9)                  1.0953         D2E/DX2 =    0.3277             !
 ! R12   R(8,10)                 1.0919         D2E/DX2 =    0.3373             !
 ! R13   R(8,11)                 1.5248         D2E/DX2 =    0.2861             !
 ! R14   R(11,12)                1.5364         D2E/DX2 =    0.2727             !
 ! R15   R(11,74)                1.0948         D2E/DX2 =    0.3298             !
 ! R16   R(11,75)                1.0945         D2E/DX2 =    0.3293             !
 ! R17   R(12,13)                1.094          D2E/DX2 =    0.3284             !
 ! R18   R(12,14)                1.5297         D2E/DX2 =    0.2834             !
 ! R19   R(12,28)                1.5149         D2E/DX2 =    0.2904             !
 ! R20   R(14,15)                1.0902         D2E/DX2 =    0.3415             !
 ! R21   R(14,16)                1.091          D2E/DX2 =    0.3401             !
 ! R22   R(14,17)                1.0909         D2E/DX2 =    0.3399             !
 ! R23   R(18,19)                1.3946         D2E/DX2 =    0.384              !
 ! R24   R(18,20)                1.3894         D2E/DX2 =    0.3966             !
 ! R25   R(19,21)                1.3815         D2E/DX2 =    0.4072             !
 ! R26   R(19,22)                1.0825         D2E/DX2 =    0.3598             !
 ! R27   R(20,23)                1.3883         D2E/DX2 =    0.3912             !
 ! R28   R(20,24)                1.0826         D2E/DX2 =    0.3596             !
 ! R29   R(21,25)                1.3942         D2E/DX2 =    0.3885             !
 ! R30   R(21,26)                1.082          D2E/DX2 =    0.362              !
 ! R31   R(23,25)                1.3885         D2E/DX2 =    0.3996             !
 ! R32   R(23,27)                1.0827         D2E/DX2 =    0.3604             !
 ! R33   R(25,41)                1.4975         D2E/DX2 =    0.3127             !
 ! R34   R(28,29)                1.3936         D2E/DX2 =    0.3848             !
 ! R35   R(28,30)                1.3912         D2E/DX2 =    0.3947             !
 ! R36   R(29,31)                1.385          D2E/DX2 =    0.3987             !
 ! R37   R(29,32)                1.0821         D2E/DX2 =    0.3611             !
 ! R38   R(30,33)                1.3848         D2E/DX2 =    0.3996             !
 ! R39   R(30,34)                1.0829         D2E/DX2 =    0.3585             !
 ! R40   R(31,35)                1.3914         D2E/DX2 =    0.3943             !
 ! R41   R(31,36)                1.0826         D2E/DX2 =    0.3605             !
 ! R42   R(33,35)                1.3899         D2E/DX2 =    0.3972             !
 ! R43   R(33,37)                1.082          D2E/DX2 =    0.3618             !
 ! R44   R(35,38)                1.4967         D2E/DX2 =    0.3135             !
 ! R45   R(38,39)                1.0855         D2E/DX2 =    0.3561             !
 ! R46   R(38,40)                1.0835         D2E/DX2 =    0.3598             !
 ! R47   R(38,68)                1.527          D2E/DX2 =    0.2607             !
 ! R48   R(41,42)                1.0839         D2E/DX2 =    0.338              !
 ! R49   R(41,43)                1.0845         D2E/DX2 =    0.3576             !
 ! R50   R(41,69)                1.5258         D2E/DX2 =    0.2498             !
 ! R51   R(42,84)                2.2355         D2E/DX2 =    0.017              !
 ! R52   R(42,85)                2.1469         D2E/DX2 =    0.0286             !
 ! R53   R(44,45)                1.0877         D2E/DX2 =    0.3482             !
 ! R54   R(44,46)                1.088          D2E/DX2 =    0.3481             !
 ! R55   R(44,47)                1.0849         D2E/DX2 =    0.3148             !
 ! R56   R(44,68)                1.4947         D2E/DX2 =    0.2722             !
 ! R57   R(47,94)                2.2278         D2E/DX2 =    0.0176             !
 ! R58   R(48,49)                1.0856         D2E/DX2 =    0.3545             !
 ! R59   R(48,50)                1.0872         D2E/DX2 =    0.3505             !
 ! R60   R(48,51)                1.0874         D2E/DX2 =    0.3491             !
 ! R61   R(48,68)                1.4829         D2E/DX2 =    0.3106             !
 ! R62   R(52,53)                1.0896         D2E/DX2 =    0.3006             !
 ! R63   R(52,54)                1.0862         D2E/DX2 =    0.353              !
 ! R64   R(52,55)                1.0878         D2E/DX2 =    0.3482             !
 ! R65   R(52,68)                1.4892         D2E/DX2 =    0.2746             !
 ! R66   R(53,93)                2.2774         D2E/DX2 =    0.0158             !
 ! R67   R(56,57)                1.088          D2E/DX2 =    0.3479             !
 ! R68   R(56,58)                1.0856         D2E/DX2 =    0.3557             !
 ! R69   R(56,59)                1.0853         D2E/DX2 =    0.3368             !
 ! R70   R(56,69)                1.495          D2E/DX2 =    0.2786             !
 ! R71   R(59,78)                2.2708         D2E/DX2 =    0.015              !
 ! R72   R(60,61)                1.0877         D2E/DX2 =    0.3486             !
 ! R73   R(60,62)                1.0868         D2E/DX2 =    0.3517             !
 ! R74   R(60,63)                1.0879         D2E/DX2 =    0.3495             !
 ! R75   R(60,69)                1.4849         D2E/DX2 =    0.3101             !
 ! R76   R(64,65)                1.0854         D2E/DX2 =    0.3549             !
 ! R77   R(64,66)                1.0878         D2E/DX2 =    0.3497             !
 ! R78   R(64,67)                1.0876         D2E/DX2 =    0.3487             !
 ! R79   R(64,69)                1.4854         D2E/DX2 =    0.3081             !
 ! R80   R(70,71)                1.255          D2E/DX2 =    0.6464             !
 ! R81   R(70,72)                1.2861         D2E/DX2 =    0.4409             !
 ! R82   R(70,73)                1.3196         D2E/DX2 =    0.3844             !
 ! R83   R(71,100)               1.7751         D2E/DX2 =    0.0226             !
 ! R84   R(72,85)                1.888          D2E/DX2 =    0.0262             !
 ! R85   R(72,89)                1.8251         D2E/DX2 =    0.0248             !
 ! R86   R(72,95)                1.8524         D2E/DX2 =    0.0214             !
 ! R87   R(73,80)                1.7449         D2E/DX2 =    0.0255             !
 ! R88   R(73,83)                1.8213         D2E/DX2 =    0.0217             !
 ! R89   R(73,91)                1.7722         D2E/DX2 =    0.0248             !
 ! R90   R(73,98)                1.7294         D2E/DX2 =    0.0282             !
 ! R91   R(78,79)                0.9577         D2E/DX2 =    0.5567             !
 ! R92   R(78,80)                0.9813         D2E/DX2 =    0.4434             !
 ! R93   R(81,82)                0.9577         D2E/DX2 =    0.5576             !
 ! R94   R(81,83)                0.9756         D2E/DX2 =    0.4908             !
 ! R95   R(84,85)                0.9735         D2E/DX2 =    0.4319             !
 ! R96   R(84,86)                0.9656         D2E/DX2 =    0.5184             !
 ! R97   R(87,88)                0.9602         D2E/DX2 =    0.5485             !
 ! R98   R(87,89)                0.9784         D2E/DX2 =    0.4817             !
 ! R99   R(90,91)                0.9805         D2E/DX2 =    0.4376             !
 ! R100  R(90,92)                0.9588         D2E/DX2 =    0.553              !
 ! R101  R(90,94)                1.9648         D2E/DX2 =    0.0203             !
 ! R102  R(93,94)                0.9675         D2E/DX2 =    0.4438             !
 ! R103  R(93,95)                0.9743         D2E/DX2 =    0.4348             !
 ! R104  R(96,97)                0.9578         D2E/DX2 =    0.5568             !
 ! R105  R(96,98)                0.9858         D2E/DX2 =    0.4574             !
 ! R106  R(99,100)               0.9784         D2E/DX2 =    0.4846             !
 ! R107  R(99,101)               0.9628         D2E/DX2 =    0.5286             !
 ! A1    A(2,1,3)              111.1389         D2E/DX2 =    0.103              !
 ! A2    A(2,1,4)              110.6535         D2E/DX2 =    0.1033             !
 ! A3    A(2,1,5)              110.9879         D2E/DX2 =    0.1053             !
 ! A4    A(3,1,4)              108.3089         D2E/DX2 =    0.0512             !
 ! A5    A(3,1,5)              107.8601         D2E/DX2 =    0.0516             !
 ! A6    A(4,1,5)              107.7619         D2E/DX2 =    0.0511             !
 ! A7    A(1,2,6)              111.0289         D2E/DX2 =    0.0731             !
 ! A8    A(1,2,7)              107.9202         D2E/DX2 =    0.0243             !
 ! A9    A(1,2,18)             111.4653         D2E/DX2 =    0.0562             !
 ! A10   A(6,2,7)              107.5977         D2E/DX2 =    0.0242             !
 ! A11   A(6,2,18)             111.344          D2E/DX2 =    0.0497             !
 ! A12   A(7,2,18)             107.271          D2E/DX2 =    0.0225             !
 ! A13   A(2,6,8)              113.928          D2E/DX2 =    0.1126             !
 ! A14   A(2,6,76)             108.5518         D2E/DX2 =    0.0465             !
 ! A15   A(2,6,77)             109.132          D2E/DX2 =    0.0485             !
 ! A16   A(8,6,76)             109.4514         D2E/DX2 =    0.0471             !
 ! A17   A(8,6,77)             109.4528         D2E/DX2 =    0.0454             !
 ! A18   A(76,6,77)            106.0215         D2E/DX2 =    0.0169             !
 ! A19   A(6,8,9)              109.0973         D2E/DX2 =    0.0465             !
 ! A20   A(6,8,10)             109.8025         D2E/DX2 =    0.0487             !
 ! A21   A(6,8,11)             112.6627         D2E/DX2 =    0.1181             !
 ! A22   A(9,8,10)             106.0626         D2E/DX2 =    0.0176             !
 ! A23   A(9,8,11)             109.5823         D2E/DX2 =    0.0469             !
 ! A24   A(10,8,11)            109.4182         D2E/DX2 =    0.0483             !
 ! A25   A(8,11,12)            114.1406         D2E/DX2 =    0.1215             !
 ! A26   A(8,11,74)            109.2704         D2E/DX2 =    0.0474             !
 ! A27   A(8,11,75)            109.5791         D2E/DX2 =    0.0476             !
 ! A28   A(12,11,74)           109.1048         D2E/DX2 =    0.0487             !
 ! A29   A(12,11,75)           108.084          D2E/DX2 =    0.0482             !
 ! A30   A(74,11,75)           106.3702         D2E/DX2 =    0.0172             !
 ! A31   A(11,12,13)           107.0892         D2E/DX2 =    0.0239             !
 ! A32   A(11,12,14)           110.9076         D2E/DX2 =    0.0762             !
 ! A33   A(11,12,28)           111.6108         D2E/DX2 =    0.0482             !
 ! A34   A(13,12,14)           107.6439         D2E/DX2 =    0.0241             !
 ! A35   A(13,12,28)           106.8414         D2E/DX2 =    0.0227             !
 ! A36   A(14,12,28)           112.4342         D2E/DX2 =    0.0606             !
 ! A37   A(12,14,15)           111.18           D2E/DX2 =    0.1025             !
 ! A38   A(12,14,16)           111.3902         D2E/DX2 =    0.1056             !
 ! A39   A(12,14,17)           110.4255         D2E/DX2 =    0.1035             !
 ! A40   A(15,14,16)           107.8993         D2E/DX2 =    0.0519             !
 ! A41   A(15,14,17)           108.2775         D2E/DX2 =    0.051              !
 ! A42   A(16,14,17)           107.5263         D2E/DX2 =    0.0514             !
 ! A43   A(2,18,19)            120.5538         D2E/DX2 =    0.1135             !
 ! A44   A(2,18,20)            121.3142         D2E/DX2 =    0.1102             !
 ! A45   A(19,18,20)           118.074          D2E/DX2 =    0.0869             !
 ! A46   A(18,19,21)           120.9123         D2E/DX2 =    0.0825             !
 ! A47   A(18,19,22)           120.0245         D2E/DX2 =    0.0837             !
 ! A48   A(21,19,22)           119.0187         D2E/DX2 =    0.0848             !
 ! A49   A(18,20,23)           121.2528         D2E/DX2 =    0.0835             !
 ! A50   A(18,20,24)           119.5475         D2E/DX2 =    0.0838             !
 ! A51   A(23,20,24)           119.1463         D2E/DX2 =    0.0842             !
 ! A52   A(19,21,25)           120.7545         D2E/DX2 =    0.083              !
 ! A53   A(19,21,26)           119.5021         D2E/DX2 =    0.0852             !
 ! A54   A(25,21,26)           119.6698         D2E/DX2 =    0.0848             !
 ! A55   A(20,23,25)           120.3596         D2E/DX2 =    0.0832             !
 ! A56   A(20,23,27)           119.4994         D2E/DX2 =    0.0855             !
 ! A57   A(25,23,27)           119.9464         D2E/DX2 =    0.0857             !
 ! A58   A(21,25,23)           118.637          D2E/DX2 =    0.0877             !
 ! A59   A(21,25,41)           120.0795         D2E/DX2 =    0.117              !
 ! A60   A(23,25,41)           120.9631         D2E/DX2 =    0.1122             !
 ! A61   A(12,28,29)           121.646          D2E/DX2 =    0.1116             !
 ! A62   A(12,28,30)           120.2269         D2E/DX2 =    0.1126             !
 ! A63   A(29,28,30)           118.0547         D2E/DX2 =    0.0873             !
 ! A64   A(28,29,31)           120.9758         D2E/DX2 =    0.0832             !
 ! A65   A(28,29,32)           120.1611         D2E/DX2 =    0.0829             !
 ! A66   A(31,29,32)           118.8455         D2E/DX2 =    0.0845             !
 ! A67   A(28,30,33)           121.1663         D2E/DX2 =    0.0835             !
 ! A68   A(28,30,34)           119.4012         D2E/DX2 =    0.0843             !
 ! A69   A(33,30,34)           119.4001         D2E/DX2 =    0.0842             !
 ! A70   A(29,31,35)           120.5687         D2E/DX2 =    0.0834             !
 ! A71   A(29,31,36)           119.696          D2E/DX2 =    0.0845             !
 ! A72   A(35,31,36)           119.6812         D2E/DX2 =    0.085              !
 ! A73   A(30,33,35)           120.4748         D2E/DX2 =    0.0833             !
 ! A74   A(30,33,37)           119.7282         D2E/DX2 =    0.0849             !
 ! A75   A(35,33,37)           119.709          D2E/DX2 =    0.0851             !
 ! A76   A(31,35,33)           118.7004         D2E/DX2 =    0.0879             !
 ! A77   A(31,35,38)           120.6782         D2E/DX2 =    0.1081             !
 ! A78   A(33,35,38)           120.4669         D2E/DX2 =    0.1114             !
 ! A79   A(35,38,39)           110.7396         D2E/DX2 =    0.049              !
 ! A80   A(35,38,40)           111.2651         D2E/DX2 =    0.047              !
 ! A81   A(35,38,68)           115.189          D2E/DX2 =    0.1339             !
 ! A82   A(39,38,40)           109.5657         D2E/DX2 =    0.0193             !
 ! A83   A(39,38,68)           105.6404         D2E/DX2 =    0.0669             !
 ! A84   A(40,38,68)           104.0583         D2E/DX2 =    0.0706             !
 ! A85   A(25,41,42)           110.0076         D2E/DX2 =    0.0443             !
 ! A86   A(25,41,43)           111.0126         D2E/DX2 =    0.0281             !
 ! A87   A(25,41,69)           115.8707         D2E/DX2 =    0.0792             !
 ! A88   A(42,41,43)           109.4685         D2E/DX2 =    0.0197             !
 ! A89   A(42,41,69)           104.8236         D2E/DX2 =    0.0623             !
 ! A90   A(43,41,69)           105.3144         D2E/DX2 =    0.0358             !
 ! A91   A(41,42,84)           156.9542         D2E/DX2 =    0.0181             !
 ! A92   A(45,44,46)           111.0603         D2E/DX2 =    0.0276             !
 ! A93   A(45,44,47)           110.2002         D2E/DX2 =    0.0315             !
 ! A94   A(45,44,68)           108.4454         D2E/DX2 =    0.0668             !
 ! A95   A(46,44,47)           109.491          D2E/DX2 =    0.0338             !
 ! A96   A(46,44,68)           108.872          D2E/DX2 =    0.071              !
 ! A97   A(47,44,68)           108.7217         D2E/DX2 =    0.047              !
 ! A98   A(44,47,94)           164.4207         D2E/DX2 =    0.0346             !
 ! A99   A(49,48,50)           109.9538         D2E/DX2 =    0.0533             !
 ! A100  A(49,48,51)           110.2709         D2E/DX2 =    0.0529             !
 ! A101  A(49,48,68)           109.2568         D2E/DX2 =    0.1281             !
 ! A102  A(50,48,51)           110.1064         D2E/DX2 =    0.0526             !
 ! A103  A(50,48,68)           108.5339         D2E/DX2 =    0.1309             !
 ! A104  A(51,48,68)           108.6807         D2E/DX2 =    0.1297             !
 ! A105  A(53,52,54)           110.6354         D2E/DX2 =    0.0323             !
 ! A106  A(53,52,55)           110.8143         D2E/DX2 =    0.03               !
 ! A107  A(53,52,68)           107.8261         D2E/DX2 =    0.0479             !
 ! A108  A(54,52,55)           110.2202         D2E/DX2 =    0.0267             !
 ! A109  A(54,52,68)           108.8143         D2E/DX2 =    0.0666             !
 ! A110  A(55,52,68)           108.4493         D2E/DX2 =    0.0671             !
 ! A111  A(52,53,93)           153.1943         D2E/DX2 =    0.0419             !
 ! A112  A(57,56,58)           110.6166         D2E/DX2 =    0.0272             !
 ! A113  A(57,56,59)           110.5931         D2E/DX2 =    0.0354             !
 ! A114  A(57,56,69)           108.4601         D2E/DX2 =    0.073              !
 ! A115  A(58,56,59)           110.3092         D2E/DX2 =    0.0392             !
 ! A116  A(58,56,69)           108.2642         D2E/DX2 =    0.0737             !
 ! A117  A(59,56,69)           108.5209         D2E/DX2 =    0.0805             !
 ! A118  A(56,59,78)           159.2685         D2E/DX2 =    0.0542             !
 ! A119  A(61,60,62)           110.2421         D2E/DX2 =    0.0534             !
 ! A120  A(61,60,63)           110.345          D2E/DX2 =    0.0535             !
 ! A121  A(61,60,69)           108.904          D2E/DX2 =    0.1312             !
 ! A122  A(62,60,63)           110.4019         D2E/DX2 =    0.0535             !
 ! A123  A(62,60,69)           108.807          D2E/DX2 =    0.1321             !
 ! A124  A(63,60,69)           108.0841         D2E/DX2 =    0.1383             !
 ! A125  A(65,64,66)           110.5981         D2E/DX2 =    0.0537             !
 ! A126  A(65,64,67)           110.2508         D2E/DX2 =    0.0535             !
 ! A127  A(65,64,69)           109.3978         D2E/DX2 =    0.1309             !
 ! A128  A(66,64,67)           110.2356         D2E/DX2 =    0.0524             !
 ! A129  A(66,64,69)           107.9252         D2E/DX2 =    0.1348             !
 ! A130  A(67,64,69)           108.3692         D2E/DX2 =    0.1325             !
 ! A131  A(38,68,44)           107.0841         D2E/DX2 =    0.0272             !
 ! A132  A(38,68,48)           111.0089         D2E/DX2 =    0.0327             !
 ! A133  A(38,68,52)           110.0089         D2E/DX2 =    0.0279             !
 ! A134  A(44,68,48)           109.1263         D2E/DX2 =    0.0292             !
 ! A135  A(44,68,52)           109.1399         D2E/DX2 =    0.0274             !
 ! A136  A(48,68,52)           110.393          D2E/DX2 =    0.0282             !
 ! A137  A(41,69,56)           106.9613         D2E/DX2 =    0.0288             !
 ! A138  A(41,69,60)           109.6211         D2E/DX2 =    0.0352             !
 ! A139  A(41,69,64)           111.3876         D2E/DX2 =    0.0346             !
 ! A140  A(56,69,60)           109.5873         D2E/DX2 =    0.0307             !
 ! A141  A(56,69,64)           108.4753         D2E/DX2 =    0.0347             !
 ! A142  A(60,69,64)           110.7165         D2E/DX2 =    0.0334             !
 ! A143  A(71,70,72)           122.1873         D2E/DX2 =    0.3042             !
 ! A144  A(71,70,73)           120.3249         D2E/DX2 =    0.3593             !
 ! A145  A(72,70,73)           117.4874         D2E/DX2 =    0.0735             !
 ! A146  A(70,71,100)          128.1453         D2E/DX2 =    0.3806             !
 ! A147  A(70,72,85)           120.8835         D2E/DX2 =    0.0166             !
 ! A148  A(70,72,89)           102.9605         D2E/DX2 =    0.0246             !
 ! A149  A(70,72,95)           108.4301         D2E/DX2 =    0.0254             !
 ! A150  A(85,72,89)            73.6084         D2E/DX2 =    0.0273             !
 ! A151  A(85,72,95)           130.6858         D2E/DX2 =    0.0189             !
 ! A152  A(89,72,95)            96.7673         D2E/DX2 =    0.0138             !
 ! A153  A(70,73,80)           121.1017         D2E/DX2 =    0.0084             !
 ! A154  A(70,73,83)           101.3628         D2E/DX2 =    0.0088             !
 ! A155  A(70,73,91)           114.617          D2E/DX2 =    0.0166             !
 ! A156  A(70,73,98)           119.4422         D2E/DX2 =    0.0213             !
 ! A157  A(80,73,83)            82.2505         D2E/DX2 =    0.0074             !
 ! A158  A(80,73,91)           121.958          D2E/DX2 =    0.0133             !
 ! A159  A(80,73,98)            75.3997         D2E/DX2 =    0.011              !
 ! A160  A(83,73,91)            72.0207         D2E/DX2 =    0.0074             !
 ! A161  A(83,73,98)           139.1439         D2E/DX2 =    0.0115             !
 ! A162  A(91,73,98)            91.4136         D2E/DX2 =    0.011              !
 ! A163  A(59,78,79)            86.9016         D2E/DX2 =    0.0058             !
 ! A164  A(59,78,80)            83.8551         D2E/DX2 =    0.0251             !
 ! A165  A(79,78,80)           104.057          D2E/DX2 =    0.0594             !
 ! A166  A(82,81,83)           102.7271         D2E/DX2 =    0.1445             !
 ! A167  A(42,84,86)            88.9815         D2E/DX2 =    0.0092             !
 ! A168  A(85,84,86)           100.2739         D2E/DX2 =    0.0773             !
 ! A169  A(42,85,72)            85.0837         D2E/DX2 =    0.0386             !
 ! A170  A(72,85,84)           157.5008         D2E/DX2 =    0.0294             !
 ! A171  A(88,87,89)           100.7244         D2E/DX2 =    0.1504             !
 ! A172  A(91,90,92)           103.2231         D2E/DX2 =    0.0375             !
 ! A173  A(91,90,94)            90.599          D2E/DX2 =    0.0275             !
 ! A174  A(92,90,94)           111.9616         D2E/DX2 =    0.0088             !
 ! A175  A(53,93,94)           112.4725         D2E/DX2 =    0.0231             !
 ! A176  A(53,93,95)           125.5145         D2E/DX2 =    0.0489             !
 ! A177  A(94,93,95)           101.3055         D2E/DX2 =    0.0473             !
 ! A178  A(47,94,90)            68.9232         D2E/DX2 =    0.0411             !
 ! A179  A(47,94,93)            98.6184         D2E/DX2 =    0.0206             !
 ! A180  A(90,94,93)           151.8642         D2E/DX2 =    0.0205             !
 ! A181  A(72,95,93)           160.8042         D2E/DX2 =    0.0339             !
 ! A182  A(97,96,98)           104.0742         D2E/DX2 =    0.1451             !
 ! A183  A(100,99,101)         102.3845         D2E/DX2 =    0.1787             !
 ! A184  L(41,42,85,11,-1)     191.5164         D2E/DX2 =    0.0091             !
 ! A185  L(73,80,78,59,-1)     179.3445         D2E/DX2 =    0.0225             !
 ! A186  L(73,83,81,26,-1)     183.1105         D2E/DX2 =    0.0291             !
 ! A187  L(72,89,87,23,-1)     168.7137         D2E/DX2 =    0.0404             !
 ! A188  L(73,91,90,36,-1)     180.222          D2E/DX2 =    0.0259             !
 ! A189  L(73,98,96,1,-1)      182.0126         D2E/DX2 =    0.0684             !
 ! A190  L(71,100,99,1,-1)     186.1754         D2E/DX2 =    0.0854             !
 ! A191  L(41,42,85,11,-2)     174.0514         D2E/DX2 =    0.0166             !
 ! A192  L(73,80,78,59,-2)     172.8648         D2E/DX2 =    0.0312             !
 ! A193  L(73,83,81,26,-2)     182.0667         D2E/DX2 =    0.0169             !
 ! A194  L(72,89,87,23,-2)     189.6786         D2E/DX2 =    0.0483             !
 ! A195  L(73,91,90,36,-2)     182.2346         D2E/DX2 =    0.0397             !
 ! A196  L(73,98,96,1,-2)      177.5695         D2E/DX2 =    0.0474             !
 ! A197  L(71,100,99,1,-2)     180.3024         D2E/DX2 =    0.0568             !
 ! D1    D(3,1,2,6)           -179.1167         D2E/DX2 =    0.0145             !
 ! D2    D(3,1,2,7)            -61.4232         D2E/DX2 =    0.0128             !
 ! D3    D(3,1,2,18)            56.1215         D2E/DX2 =    0.0145             !
 ! D4    D(4,1,2,6)            -58.7401         D2E/DX2 =    0.0143             !
 ! D5    D(4,1,2,7)             58.9533         D2E/DX2 =    0.013              !
 ! D6    D(4,1,2,18)           176.4981         D2E/DX2 =    0.0147             !
 ! D7    D(5,1,2,6)             60.8495         D2E/DX2 =    0.0143             !
 ! D8    D(5,1,2,7)            178.5429         D2E/DX2 =    0.0125             !
 ! D9    D(5,1,2,18)           -63.9123         D2E/DX2 =    0.0148             !
 ! D10   D(1,2,6,8)            173.9365         D2E/DX2 =    0.0182             !
 ! D11   D(1,2,6,76)            51.7145         D2E/DX2 =    0.0162             !
 ! D12   D(1,2,6,77)           -63.4088         D2E/DX2 =    0.0159             !
 ! D13   D(7,2,6,8)             56.047          D2E/DX2 =    0.0134             !
 ! D14   D(7,2,6,76)           -66.175          D2E/DX2 =    0.0136             !
 ! D15   D(7,2,6,77)           178.7017         D2E/DX2 =    0.0134             !
 ! D16   D(18,2,6,8)           -61.2333         D2E/DX2 =    0.0166             !
 ! D17   D(18,2,6,76)          176.5448         D2E/DX2 =    0.0174             !
 ! D18   D(18,2,6,77)           61.4214         D2E/DX2 =    0.0166             !
 ! D19   D(1,2,18,19)           64.7744         D2E/DX2 =    0.0145             !
 ! D20   D(1,2,18,20)         -118.0496         D2E/DX2 =    0.0141             !
 ! D21   D(6,2,18,19)          -59.8109         D2E/DX2 =    0.0151             !
 ! D22   D(6,2,18,20)          117.3651         D2E/DX2 =    0.0148             !
 ! D23   D(7,2,18,19)         -177.2893         D2E/DX2 =    0.0104             !
 ! D24   D(7,2,18,20)           -0.1133         D2E/DX2 =    0.0096             !
 ! D25   D(2,6,8,9)            -63.7688         D2E/DX2 =    0.0147             !
 ! D26   D(2,6,8,10)            52.072          D2E/DX2 =    0.0154             !
 ! D27   D(2,6,8,11)           174.2985         D2E/DX2 =    0.0156             !
 ! D28   D(76,6,8,9)            57.9569         D2E/DX2 =    0.0156             !
 ! D29   D(76,6,8,10)          173.7977         D2E/DX2 =    0.0152             !
 ! D30   D(76,6,8,11)          -63.9758         D2E/DX2 =    0.0151             !
 ! D31   D(77,6,8,9)           173.7523         D2E/DX2 =    0.0151             !
 ! D32   D(77,6,8,10)          -70.4068         D2E/DX2 =    0.016              !
 ! D33   D(77,6,8,11)           51.8196         D2E/DX2 =    0.0158             !
 ! D34   D(6,8,11,12)          171.4389         D2E/DX2 =    0.0154             !
 ! D35   D(6,8,11,74)          -66.1059         D2E/DX2 =    0.0155             !
 ! D36   D(6,8,11,75)           50.0773         D2E/DX2 =    0.015              !
 ! D37   D(9,8,11,12)           49.7808         D2E/DX2 =    0.0148             !
 ! D38   D(9,8,11,74)          172.236          D2E/DX2 =    0.0151             !
 ! D39   D(9,8,11,75)          -71.5808         D2E/DX2 =    0.0159             !
 ! D40   D(10,8,11,12)         -66.1183         D2E/DX2 =    0.0158             !
 ! D41   D(10,8,11,74)          56.3369         D2E/DX2 =    0.0157             !
 ! D42   D(10,8,11,75)         172.5201         D2E/DX2 =    0.0153             !
 ! D43   D(8,11,12,13)         -59.4918         D2E/DX2 =    0.014              !
 ! D44   D(8,11,12,14)        -176.6788         D2E/DX2 =    0.0192             !
 ! D45   D(8,11,12,28)          57.1116         D2E/DX2 =    0.0176             !
 ! D46   D(74,11,12,13)        177.9625         D2E/DX2 =    0.0137             !
 ! D47   D(74,11,12,14)         60.7755         D2E/DX2 =    0.0166             !
 ! D48   D(74,11,12,28)        -65.4341         D2E/DX2 =    0.0173             !
 ! D49   D(75,11,12,13)         62.6931         D2E/DX2 =    0.0137             !
 ! D50   D(75,11,12,14)        -54.4939         D2E/DX2 =    0.0167             !
 ! D51   D(75,11,12,28)        179.2965         D2E/DX2 =    0.0177             !
 ! D52   D(11,12,14,15)        179.4834         D2E/DX2 =    0.0137             !
 ! D53   D(11,12,14,16)        -60.1344         D2E/DX2 =    0.0136             !
 ! D54   D(11,12,14,17)         59.2713         D2E/DX2 =    0.0136             !
 ! D55   D(13,12,14,15)         62.6367         D2E/DX2 =    0.0129             !
 ! D56   D(13,12,14,16)       -176.9811         D2E/DX2 =    0.0127             !
 ! D57   D(13,12,14,17)        -57.5754         D2E/DX2 =    0.013              !
 ! D58   D(28,12,14,15)        -54.7657         D2E/DX2 =    0.0137             !
 ! D59   D(28,12,14,16)         65.6165         D2E/DX2 =    0.014              !
 ! D60   D(28,12,14,17)       -174.9778         D2E/DX2 =    0.014              !
 ! D61   D(11,12,28,29)         73.1171         D2E/DX2 =    0.0155             !
 ! D62   D(11,12,28,30)       -103.7265         D2E/DX2 =    0.0145             !
 ! D63   D(13,12,28,29)       -170.129          D2E/DX2 =    0.0106             !
 ! D64   D(13,12,28,30)         13.0274         D2E/DX2 =    0.0094             !
 ! D65   D(14,12,28,29)        -52.251          D2E/DX2 =    0.0138             !
 ! D66   D(14,12,28,30)        130.9054         D2E/DX2 =    0.0134             !
 ! D67   D(2,18,19,21)         176.5206         D2E/DX2 =    0.0099             !
 ! D68   D(2,18,19,22)          -1.0301         D2E/DX2 =    0.0085             !
 ! D69   D(20,18,19,21)         -0.745          D2E/DX2 =    0.0081             !
 ! D70   D(20,18,19,22)       -178.2958         D2E/DX2 =    0.0072             !
 ! D71   D(2,18,20,23)        -177.0124         D2E/DX2 =    0.0105             !
 ! D72   D(2,18,20,24)           0.3066         D2E/DX2 =    0.0085             !
 ! D73   D(19,18,20,23)          0.2315         D2E/DX2 =    0.0083             !
 ! D74   D(19,18,20,24)        177.5504         D2E/DX2 =    0.0073             !
 ! D75   D(18,19,21,25)          1.1799         D2E/DX2 =    0.009              !
 ! D76   D(18,19,21,26)       -175.6919         D2E/DX2 =    0.0093             !
 ! D77   D(22,19,21,25)        178.7549         D2E/DX2 =    0.0093             !
 ! D78   D(22,19,21,26)          1.8832         D2E/DX2 =    0.0095             !
 ! D79   D(18,20,23,25)         -0.145          D2E/DX2 =    0.0091             !
 ! D80   D(18,20,23,27)        174.7839         D2E/DX2 =    0.0093             !
 ! D81   D(24,20,23,25)       -177.4745         D2E/DX2 =    0.0092             !
 ! D82   D(24,20,23,27)         -2.5455         D2E/DX2 =    0.0095             !
 ! D83   D(19,21,25,23)         -1.063          D2E/DX2 =    0.0091             !
 ! D84   D(19,21,25,41)       -174.6265         D2E/DX2 =    0.0107             !
 ! D85   D(26,21,25,23)        175.8035         D2E/DX2 =    0.0079             !
 ! D86   D(26,21,25,41)          2.24           D2E/DX2 =    0.0087             !
 ! D87   D(20,23,25,21)          0.5485         D2E/DX2 =    0.0089             !
 ! D88   D(20,23,25,41)        174.053          D2E/DX2 =    0.011              !
 ! D89   D(27,23,25,21)       -174.3577         D2E/DX2 =    0.0077             !
 ! D90   D(27,23,25,41)         -0.8533         D2E/DX2 =    0.009              !
 ! D91   D(21,25,41,42)         32.2703         D2E/DX2 =    0.013              !
 ! D92   D(21,25,41,43)        153.591          D2E/DX2 =    0.0118             !
 ! D93   D(21,25,41,69)        -86.3615         D2E/DX2 =    0.0201             !
 ! D94   D(23,25,41,42)       -141.1411         D2E/DX2 =    0.0121             !
 ! D95   D(23,25,41,43)        -19.8204         D2E/DX2 =    0.0104             !
 ! D96   D(23,25,41,69)        100.2271         D2E/DX2 =    0.0186             !
 ! D97   D(12,28,29,31)       -178.3519         D2E/DX2 =    0.0111             !
 ! D98   D(12,28,29,32)          0.1013         D2E/DX2 =    0.0084             !
 ! D99   D(30,28,29,31)         -1.4422         D2E/DX2 =    0.0085             !
 ! D100  D(30,28,29,32)        177.011          D2E/DX2 =    0.0072             !
 ! D101  D(12,28,30,33)        177.5419         D2E/DX2 =    0.0105             !
 ! D102  D(12,28,30,34)         -0.3771         D2E/DX2 =    0.0085             !
 ! D103  D(29,28,30,33)          0.5866         D2E/DX2 =    0.0082             !
 ! D104  D(29,28,30,34)       -177.3323         D2E/DX2 =    0.0071             !
 ! D105  D(28,29,31,35)          0.1736         D2E/DX2 =    0.009              !
 ! D106  D(28,29,31,36)        177.4896         D2E/DX2 =    0.0096             !
 ! D107  D(32,29,31,35)       -178.2996         D2E/DX2 =    0.0093             !
 ! D108  D(32,29,31,36)         -0.9836         D2E/DX2 =    0.0094             !
 ! D109  D(28,30,33,35)          1.5497         D2E/DX2 =    0.0091             !
 ! D110  D(28,30,33,37)       -175.0303         D2E/DX2 =    0.0092             !
 ! D111  D(34,30,33,35)        179.4687         D2E/DX2 =    0.0095             !
 ! D112  D(34,30,33,37)          2.8887         D2E/DX2 =    0.0093             !
 ! D113  D(29,31,35,33)          1.9492         D2E/DX2 =    0.0089             !
 ! D114  D(29,31,35,38)        177.4533         D2E/DX2 =    0.0118             !
 ! D115  D(36,31,35,33)       -175.3672         D2E/DX2 =    0.0074             !
 ! D116  D(36,31,35,38)          0.1369         D2E/DX2 =    0.0089             !
 ! D117  D(30,33,35,31)         -2.798          D2E/DX2 =    0.0093             !
 ! D118  D(30,33,35,38)       -178.3119         D2E/DX2 =    0.0123             !
 ! D119  D(37,33,35,31)        173.7827         D2E/DX2 =    0.0074             !
 ! D120  D(37,33,35,38)         -1.7313         D2E/DX2 =    0.0087             !
 ! D121  D(31,35,38,39)       -145.0675         D2E/DX2 =    0.0157             !
 ! D122  D(31,35,38,40)        -22.9523         D2E/DX2 =    0.0162             !
 ! D123  D(31,35,38,68)         95.1528         D2E/DX2 =    0.0175             !
 ! D124  D(33,35,38,39)         30.3571         D2E/DX2 =    0.0163             !
 ! D125  D(33,35,38,40)        152.4723         D2E/DX2 =    0.0165             !
 ! D126  D(33,35,38,68)        -89.4226         D2E/DX2 =    0.0186             !
 ! D127  D(35,38,68,44)        178.6983         D2E/DX2 =    0.0167             !
 ! D128  D(35,38,68,48)         59.6717         D2E/DX2 =    0.0152             !
 ! D129  D(35,38,68,52)        -62.8145         D2E/DX2 =    0.0153             !
 ! D130  D(39,38,68,44)         56.1469         D2E/DX2 =    0.0154             !
 ! D131  D(39,38,68,48)        -62.8797         D2E/DX2 =    0.0144             !
 ! D132  D(39,38,68,52)        174.6341         D2E/DX2 =    0.0159             !
 ! D133  D(40,38,68,44)        -59.2323         D2E/DX2 =    0.0157             !
 ! D134  D(40,38,68,48)       -178.259          D2E/DX2 =    0.0153             !
 ! D135  D(40,38,68,52)         59.2548         D2E/DX2 =    0.0149             !
 ! D136  D(25,41,42,84)        -96.0982         D2E/DX2 =    0.0168             !
 ! D137  D(43,41,42,84)        141.6621         D2E/DX2 =    0.0112             !
 ! D138  D(69,41,42,84)         29.122          D2E/DX2 =    0.0196             !
 ! D139  D(25,41,69,56)        171.7393         D2E/DX2 =    0.018              !
 ! D140  D(25,41,69,60)        -69.5215         D2E/DX2 =    0.0173             !
 ! D141  D(25,41,69,64)         53.3631         D2E/DX2 =    0.0164             !
 ! D142  D(42,41,69,56)         50.2939         D2E/DX2 =    0.0148             !
 ! D143  D(42,41,69,60)        169.0332         D2E/DX2 =    0.0178             !
 ! D144  D(42,41,69,64)        -68.0823         D2E/DX2 =    0.0162             !
 ! D145  D(43,41,69,56)        -65.1691         D2E/DX2 =    0.0147             !
 ! D146  D(43,41,69,60)         53.5702         D2E/DX2 =    0.0139             !
 ! D147  D(43,41,69,64)        176.4547         D2E/DX2 =    0.0143             !
 ! D148  D(25,41,85,72)         93.203          D2E/DX2 =    0.0297             !
 ! D149  D(43,41,85,72)        -30.9761         D2E/DX2 =    0.0191             !
 ! D150  D(69,41,85,72)       -139.7997         D2E/DX2 =    0.0294             !
 ! D151  D(41,42,84,86)        110.0584         D2E/DX2 =    0.0271             !
 ! D152  D(45,44,47,94)       -121.6258         D2E/DX2 =    0.0286             !
 ! D153  D(46,44,47,94)        115.935          D2E/DX2 =    0.0302             !
 ! D154  D(68,44,47,94)         -2.8968         D2E/DX2 =    0.0148             !
 ! D155  D(45,44,68,38)       -178.6062         D2E/DX2 =    0.0163             !
 ! D156  D(45,44,68,48)        -58.3704         D2E/DX2 =    0.0149             !
 ! D157  D(45,44,68,52)         62.3439         D2E/DX2 =    0.0147             !
 ! D158  D(46,44,68,38)        -57.6525         D2E/DX2 =    0.0166             !
 ! D159  D(46,44,68,48)         62.5833         D2E/DX2 =    0.0156             !
 ! D160  D(46,44,68,52)       -176.7025         D2E/DX2 =    0.0155             !
 ! D161  D(47,44,68,38)         61.5673         D2E/DX2 =    0.0172             !
 ! D162  D(47,44,68,48)       -178.1969         D2E/DX2 =    0.0188             !
 ! D163  D(47,44,68,52)        -57.4826         D2E/DX2 =    0.0144             !
 ! D164  D(44,47,94,90)       -145.2742         D2E/DX2 =    0.019              !
 ! D165  D(44,47,94,93)          8.549          D2E/DX2 =    0.0091             !
 ! D166  D(49,48,68,38)        -62.7784         D2E/DX2 =    0.014              !
 ! D167  D(49,48,68,44)        179.4294         D2E/DX2 =    0.0147             !
 ! D168  D(49,48,68,52)         59.4848         D2E/DX2 =    0.0138             !
 ! D169  D(50,48,68,38)         57.1145         D2E/DX2 =    0.014              !
 ! D170  D(50,48,68,44)        -60.6777         D2E/DX2 =    0.0142             !
 ! D171  D(50,48,68,52)        179.3778         D2E/DX2 =    0.014              !
 ! D172  D(51,48,68,38)        176.8558         D2E/DX2 =    0.014              !
 ! D173  D(51,48,68,44)         59.0636         D2E/DX2 =    0.0142             !
 ! D174  D(51,48,68,52)        -60.8809         D2E/DX2 =    0.0136             !
 ! D175  D(54,52,53,93)       -118.0188         D2E/DX2 =    0.0299             !
 ! D176  D(55,52,53,93)        119.4153         D2E/DX2 =    0.0311             !
 ! D177  D(68,52,53,93)          0.8684         D2E/DX2 =    0.0146             !
 ! D178  D(53,52,68,38)        -56.4705         D2E/DX2 =    0.0166             !
 ! D179  D(53,52,68,44)         60.7439         D2E/DX2 =    0.0137             !
 ! D180  D(53,52,68,48)       -179.3197         D2E/DX2 =    0.0191             !
 ! D181  D(54,52,68,38)         63.5725         D2E/DX2 =    0.0155             !
 ! D182  D(54,52,68,44)       -179.2131         D2E/DX2 =    0.0155             !
 ! D183  D(54,52,68,48)        -59.2767         D2E/DX2 =    0.0157             !
 ! D184  D(55,52,68,38)       -176.521          D2E/DX2 =    0.0157             !
 ! D185  D(55,52,68,44)        -59.3065         D2E/DX2 =    0.0147             !
 ! D186  D(55,52,68,48)         60.6298         D2E/DX2 =    0.0151             !
 ! D187  D(52,53,93,94)        -61.9249         D2E/DX2 =    0.0113             !
 ! D188  D(52,53,93,95)         61.8443         D2E/DX2 =    0.0125             !
 ! D189  D(57,56,59,78)       -111.1994         D2E/DX2 =    0.0282             !
 ! D190  D(58,56,59,78)        126.1074         D2E/DX2 =    0.0288             !
 ! D191  D(69,56,59,78)          7.6564         D2E/DX2 =    0.0192             !
 ! D192  D(57,56,69,41)        177.4331         D2E/DX2 =    0.0163             !
 ! D193  D(57,56,69,60)         58.6719         D2E/DX2 =    0.0156             !
 ! D194  D(57,56,69,64)        -62.3099         D2E/DX2 =    0.0163             !
 ! D195  D(58,56,69,41)        -62.4958         D2E/DX2 =    0.0181             !
 ! D196  D(58,56,69,60)        178.7431         D2E/DX2 =    0.0166             !
 ! D197  D(58,56,69,64)         57.7613         D2E/DX2 =    0.0157             !
 ! D198  D(59,56,69,41)         57.2414         D2E/DX2 =    0.0179             !
 ! D199  D(59,56,69,60)        -61.5197         D2E/DX2 =    0.0191             !
 ! D200  D(59,56,69,64)        177.4985         D2E/DX2 =    0.0208             !
 ! D201  D(56,59,78,79)        158.5729         D2E/DX2 =    0.0232             !
 ! D202  D(56,59,78,80)        -96.9214         D2E/DX2 =    0.0206             !
 ! D203  D(61,60,69,41)        179.7371         D2E/DX2 =    0.0147             !
 ! D204  D(61,60,69,56)        -63.1602         D2E/DX2 =    0.015              !
 ! D205  D(61,60,69,64)         56.456          D2E/DX2 =    0.0156             !
 ! D206  D(62,60,69,41)         59.5406         D2E/DX2 =    0.0148             !
 ! D207  D(62,60,69,56)        176.6433         D2E/DX2 =    0.0154             !
 ! D208  D(62,60,69,64)        -63.7405         D2E/DX2 =    0.0158             !
 ! D209  D(63,60,69,41)        -60.3676         D2E/DX2 =    0.0153             !
 ! D210  D(63,60,69,56)         56.7352         D2E/DX2 =    0.0156             !
 ! D211  D(63,60,69,64)        176.3514         D2E/DX2 =    0.0163             !
 ! D212  D(65,64,69,41)        -64.2851         D2E/DX2 =    0.0151             !
 ! D213  D(65,64,69,56)        178.2516         D2E/DX2 =    0.015              !
 ! D214  D(65,64,69,60)         57.9696         D2E/DX2 =    0.0148             !
 ! D215  D(66,64,69,41)         56.1068         D2E/DX2 =    0.0158             !
 ! D216  D(66,64,69,56)        -61.3565         D2E/DX2 =    0.0151             !
 ! D217  D(66,64,69,60)        178.3614         D2E/DX2 =    0.0155             !
 ! D218  D(67,64,69,41)        175.4775         D2E/DX2 =    0.0148             !
 ! D219  D(67,64,69,56)         58.0142         D2E/DX2 =    0.0143             !
 ! D220  D(67,64,69,60)        -62.2678         D2E/DX2 =    0.0146             !
 ! D221  D(72,70,71,100)      -178.4853         D2E/DX2 =    0.0513             !
 ! D222  D(73,70,71,100)         1.3104         D2E/DX2 =    0.0459             !
 ! D223  D(71,70,72,85)        -78.6085         D2E/DX2 =    0.0151             !
 ! D224  D(71,70,72,89)         -0.1322         D2E/DX2 =    0.0151             !
 ! D225  D(71,70,72,95)        101.6474         D2E/DX2 =    0.0138             !
 ! D226  D(73,70,72,85)        101.5903         D2E/DX2 =    0.0131             !
 ! D227  D(73,70,72,89)       -179.9334         D2E/DX2 =    0.0153             !
 ! D228  D(73,70,72,95)        -78.1538         D2E/DX2 =    0.0127             !
 ! D229  D(71,70,73,80)         60.059          D2E/DX2 =    0.0112             !
 ! D230  D(71,70,73,83)        147.8014         D2E/DX2 =    0.0093             !
 ! D231  D(71,70,73,91)       -136.9273         D2E/DX2 =    0.0094             !
 ! D232  D(71,70,73,98)        -30.0822         D2E/DX2 =    0.0111             !
 ! D233  D(72,70,73,80)       -120.1359         D2E/DX2 =    0.0095             !
 ! D234  D(72,70,73,83)        -32.3935         D2E/DX2 =    0.009              !
 ! D235  D(72,70,73,91)         42.8778         D2E/DX2 =    0.0072             !
 ! D236  D(72,70,73,98)        149.7229         D2E/DX2 =    0.0103             !
 ! D237  D(70,71,99,101)        15.8762         D2E/DX2 =    0.0389             !
 ! D238  D(70,72,85,42)         13.6945         D2E/DX2 =    0.0191             !
 ! D239  D(70,72,85,84)         69.7321         D2E/DX2 =    0.0068             !
 ! D240  D(89,72,85,42)        -81.8414         D2E/DX2 =    0.0204             !
 ! D241  D(89,72,85,84)        -25.8039         D2E/DX2 =    0.0102             !
 ! D242  D(95,72,85,42)       -166.6256         D2E/DX2 =    0.0124             !
 ! D243  D(95,72,85,84)       -110.5881         D2E/DX2 =    0.0046             !
 ! D244  D(70,72,87,88)         -1.7012         D2E/DX2 =    0.011              !
 ! D245  D(85,72,87,88)        117.2962         D2E/DX2 =    0.009              !
 ! D246  D(95,72,87,88)       -113.4953         D2E/DX2 =    0.012              !
 ! D247  D(70,72,95,93)         32.6081         D2E/DX2 =    0.0132             !
 ! D248  D(85,72,95,93)       -147.1023         D2E/DX2 =    0.007              !
 ! D249  D(89,72,95,93)        138.7255         D2E/DX2 =    0.0186             !
 ! D250  D(70,73,78,59)         52.2358         D2E/DX2 =    0.0086             !
 ! D251  D(70,73,78,79)        137.9621         D2E/DX2 =    0.0064             !
 ! D252  D(83,73,78,59)        -45.1414         D2E/DX2 =    0.0107             !
 ! D253  D(83,73,78,79)         40.5849         D2E/DX2 =    0.0043             !
 ! D254  D(91,73,78,59)       -107.9574         D2E/DX2 =    0.0095             !
 ! D255  D(91,73,78,79)        -22.2311         D2E/DX2 =    0.0046             !
 ! D256  D(98,73,78,59)        168.4979         D2E/DX2 =    0.013              !
 ! D257  D(98,73,78,79)       -105.7758         D2E/DX2 =    0.0078             !
 ! D258  D(70,73,81,82)         27.4186         D2E/DX2 =    0.0049             !
 ! D259  D(80,73,81,82)        147.5509         D2E/DX2 =    0.0044             !
 ! D260  D(91,73,81,82)        -84.6168         D2E/DX2 =    0.0087             !
 ! D261  D(98,73,81,82)       -155.3441         D2E/DX2 =    0.0064             !
 ! D262  D(70,73,90,92)       -103.194          D2E/DX2 =    0.0046             !
 ! D263  D(70,73,90,94)          9.3699         D2E/DX2 =    0.011              !
 ! D264  D(80,73,90,92)         58.8739         D2E/DX2 =    0.0038             !
 ! D265  D(80,73,90,94)        171.4378         D2E/DX2 =    0.0126             !
 ! D266  D(83,73,90,92)         -8.8663         D2E/DX2 =    0.0041             !
 ! D267  D(83,73,90,94)        103.6976         D2E/DX2 =    0.011              !
 ! D268  D(98,73,90,92)        132.9674         D2E/DX2 =    0.0094             !
 ! D269  D(98,73,90,94)       -114.4687         D2E/DX2 =    0.0247             !
 ! D270  D(70,73,96,97)        140.9105         D2E/DX2 =    0.0059             !
 ! D271  D(80,73,96,97)         23.5            D2E/DX2 =    0.0057             !
 ! D272  D(83,73,96,97)        -35.6039         D2E/DX2 =    0.01               !
 ! D273  D(91,73,96,97)        -99.4383         D2E/DX2 =    0.0067             !
 ! D274  D(42,84,85,86)        -85.5586         D2E/DX2 =    0.0065             !
 ! D275  D(86,84,85,72)         29.0621         D2E/DX2 =    0.0096             !
 ! D276  D(91,90,94,47)         82.7568         D2E/DX2 =    0.0306             !
 ! D277  D(91,90,94,93)         15.0996         D2E/DX2 =    0.0099             !
 ! D278  D(92,90,94,47)       -172.7142         D2E/DX2 =    0.0193             !
 ! D279  D(92,90,94,93)        119.6286         D2E/DX2 =    0.0123             !
 ! D280  D(53,93,94,47)         25.5609         D2E/DX2 =    0.009              !
 ! D281  D(53,93,94,90)         86.3589         D2E/DX2 =    0.0278             !
 ! D282  D(95,93,94,47)       -110.8068         D2E/DX2 =    0.0312             !
 ! D283  D(95,93,94,90)        -50.0088         D2E/DX2 =    0.0076             !
 ! D284  D(53,93,95,72)        -83.902          D2E/DX2 =    0.0248             !
 ! D285  D(94,93,95,72)         44.5289         D2E/DX2 =    0.017              !
 --------------------------------------------------------------------------------
 Trust Radius=3.00D-01 FncErr=1.00D-07 GrdErr=1.00D-06 EigMax=2.50D+02 EigMin=1.00D-04
 Number of steps in this run=    599 maximum allowed number of steps=    606.
 GradGradGradGradGradGradGradGradGradGradGradGradGradGradGradGradGradGrad

 Leave Link  103 at Mon Mar 11 13:33:57 2024, MaxMem=  1476395008 cpu:               1.3 elap:               0.1
 (Enter /packages/apps/gaussian/g16/g16/l202.exe)
 Stoichiometry    C28H60N2O11
 Framework group  C1[X(C28H60N2O11)]
 Deg. of freedom   297
 Full point group                 C1      NOp   1
 Largest Abelian subgroup         C1      NOp   1
 Largest concise Abelian subgroup C1      NOp   1
                         Standard orientation:                         
 ---------------------------------------------------------------------
 Center     Atomic      Atomic             Coordinates (Angstroms)
 Number     Number       Type             X           Y           Z
 ---------------------------------------------------------------------
      1          6           0       -5.929301    3.015179   -0.512695
      2          6           0       -5.017207    1.817366   -0.790276
      3          1           0       -5.674121    3.860250   -1.152461
      4          1           0       -6.973245    2.753356   -0.690933
      5          1           0       -5.840462    3.342054    0.525009
      6          6           0       -5.393005    0.621156    0.096921
      7          1           0       -5.164704    1.516184   -1.831312
      8          6           0       -4.622993   -0.654354   -0.226175
      9          1           0       -4.875517   -0.977884   -1.241664
     10          1           0       -3.550885   -0.447585   -0.232802
     11          6           0       -4.915664   -1.782378    0.757216
     12          6           0       -4.323804   -3.140473    0.349873
     13          1           0       -4.753083   -3.399620   -0.622435
     14          6           0       -4.729370   -4.232259    1.341607
     15          1           0       -4.319144   -5.199855    1.051720
     16          1           0       -4.375835   -4.006287    2.348723
     17          1           0       -5.815704   -4.320934    1.386963
     18          6           0       -3.556358    2.184431   -0.631004
     19          6           0       -3.050906    2.558036    0.613938
     20          6           0       -2.671122    2.104342   -1.698836
     21          6           0       -1.706103    2.825265    0.782753
     22          1           0       -3.707294    2.603718    1.473479
     23          6           0       -1.320486    2.382075   -1.537160
     24          1           0       -3.030182    1.778159   -2.666659
     25          6           0       -0.823892    2.751610   -0.294316
     26          1           0       -1.326526    3.044788    1.771960
     27          1           0       -0.641692    2.229147   -2.366733
     28          6           0       -2.822962   -3.060615    0.159802
     29          6           0       -1.953615   -2.949004    1.243319
     30          6           0       -2.279732   -3.031645   -1.120588
     31          6           0       -0.586033   -2.842966    1.051962
     32          1           0       -2.343464   -2.918866    2.252292
     33          6           0       -0.914537   -2.908111   -1.317258
     34          1           0       -2.938846   -3.072882   -1.978753
     35          6           0       -0.049090   -2.842016   -0.231669
     36          1           0        0.066829   -2.716300    1.906246
     37          1           0       -0.524056   -2.806930   -2.321303
     38          6           0        1.422576   -2.670692   -0.443702
     39          1           0        1.617198   -2.106383   -1.350364
     40          1           0        1.885820   -2.173054    0.399882
     41          6           0        0.646860    2.925803   -0.073076
     42          1           0        0.922820    2.543992    0.903061
     43          1           0        1.218728    2.411119   -0.837406
     44          6           0        3.640501   -3.589480   -0.822451
     45          1           0        4.221403   -4.499664   -0.954030
     46          1           0        3.696647   -2.958543   -1.707002
     47          1           0        3.999633   -3.037183    0.039517
     48          6           0        1.726568   -4.761989   -1.743167
     49          1           0        0.693348   -5.047159   -1.571082
     50          1           0        1.798182   -4.149291   -2.638452
     51          1           0        2.349760   -5.647283   -1.845210
     52          6           0        2.119455   -4.765851    0.665437
     53          1           0        2.474866   -4.141756    1.484810
     54          1           0        1.083029   -5.050321    0.822638
     55          1           0        2.740428   -5.652422    0.557355
     56          6           0        2.585764    4.324536    0.349158
     57          1           0        2.987950    5.334393    0.303329
     58          1           0        2.620160    3.945146    1.365746
     59          1           0        3.132346    3.665332   -0.317628
     60          6           0        1.072882    4.908137   -1.467224
     61          1           0        1.434356    5.934025   -1.463739
     62          1           0        0.036994    4.875559   -1.794412
     63          1           0        1.693998    4.290436   -2.112411
     64          6           0        0.397311    5.217768    0.860812
     65          1           0       -0.637417    5.281849    0.539420
     66          1           0        0.464297    4.763713    1.847017
     67          1           0        0.850455    6.206372    0.870288
     68          7           0        2.213727   -3.968678   -0.588853
     69          7           0        1.156679    4.363834   -0.088177
     70          6           0        2.084089    0.249658    0.475444
     71          8           0        0.947176    0.121467   -0.040246
     72          8           0        2.255959    0.310822    1.748527
     73          8           0        3.157731    0.322902   -0.288319
     74          1           0       -4.534664   -1.507564    1.746080
     75          1           0       -5.998115   -1.902408    0.866111
     76          1           0       -6.466092    0.434891   -0.006151
     77          1           0       -5.232156    0.888168    1.146122
     78          8           0        3.555079    2.318341   -2.096234
     79          1           0        4.483978    2.493158   -1.941759
     80          1           0        3.340422    1.596793   -1.466687
     81          8           0        4.841559    2.001416    1.182248
     82          1           0        4.580004    1.873626    2.094684
     83          1           0        4.226090    1.419025    0.698642
     84          8           0        1.389912    2.627083    3.087658
     85          1           0        1.916711    1.907913    2.696610
     86          1           0        0.564020    2.159078    3.264480
     87          8           0       -0.376262    0.330820    2.649721
[...]
 00007690,-0.00006668,-0.00006650,0.00001157,-0.00004868,-0.00000232,0.
 00003662,-0.00002884,-0.00006565,-0.00002597,0.00005150,-0.00000349,-0
 .00015379,0.00009627,0.00019996,0.00004971,0.00004624,0.00005379,-0.00
 000007,-0.00003845,0.00000025,-0.00001752,0.00007654,-0.00006157,-0.00
 016141,0.00002408,-0.00008013,0.00002942,0.00003522,0.00001294,-0.0000
 0964,0.00000465,-0.00001687,-0.00004848,-0.00001158,0.00000367,0.00004
 980,-0.00003042,0.00008298,0.00000682,0.00005662,0.00001335,0.00000446
 ,-0.00005127,0.00001179,-0.00006558,-0.00005964,0.00003968,0.00015262,
 0.00006205,-0.00011145,0.00000100,-0.00003650,0.00000280,-0.00001414,-
 0.00000821,-0.00002496,-0.00001102,0.00006180,0.00003222,-0.00004584,0
 .00022587,-0.00052212,-0.00008588,0.00020941,0.00027737,-0.00259242,-0
 .00153686,-0.00080083,0.00197001,-0.00709781,0.00148011,0.00057592,0.0
 0111923,0.00099185,0.00108600,-0.00100413,-0.00020886,-0.00001742,0.00
 000461,0.00000121,0.00005405,-0.00004977,-0.00000018,-0.00003112,-0.00
 006862,0.00000451,0.00002697,-0.00000618,-0.00002876,0.00046600,-0.000
 08309,-0.00015030,-0.00000983,0.00004174,0.00004506,-0.00057565,0.0000
 9444,-0.00007390,0.00018131,-0.00008723,0.00004548,-0.00007121,0.00002
 565,-0.00002839,-0.00009753,0.00004584,-0.00003023,0.00001632,-0.00007
 152,0.00027861,0.00001649,0.00001137,-0.00009984,0.00002519,0.00008962
 ,-0.00007317,-0.00014384,-0.00037609,0.00012489,0.00009614,0.00028935,
 -0.00007804,0.00012805,0.00011016,-0.00013343,0.00010344,-0.00027087,0
 .00004084,-0.00024704,0.00029294,-0.00006652,-0.00002291,0.00003547,0.
 00000338,-0.00010541,-0.00031600,-0.00018927,0.00006198,0.00008745,-0.
 00000450,-0.00010189,0.00034372,-0.00003671,-0.00055104,-0.00065030,0.
 00014925,-0.00019188,0.00017853,0.00003918,0.00050777,0.00084043,0.000
 57067,0.00320161,-0.02359576,-0.04793527,-0.00503776,0.03609565,-0.000
 01925,-0.00001083,-0.00001620,0.00002578,0.00001492,0.00003903,0.00000
 368,0.00001210,0.00000477,-0.00001109,0.00000114,0.00000520,0.00000934
 ,-0.00001051,-0.00001942,-0.00001624,-0.00000293,-0.00000855,-0.000042
 52,-0.00001565,-0.00004656,0.00007902,0.00003493,0.00003984,-0.0000762
 1,-0.00003271,-0.00005066,0.00001407,0.00000354,0.00007881,-0.00000088
 ,-0.00001537,0.00002705,0.00002443,0.00002438,-0.00001774,-0.00003805,
 -0.00001756,-0.00002508,-0.00001130,0.00000336,0.00000205,0.00000617,-
 0.00000021,0.00000237,0.00000265,0.00000056,-0.00002125,-0.00001054,-0
 .00000023,0.00000434,-0.00008423,0.00006864,0.00022630,-0.00005846,-0.
 00005694,-0.00035043,0.00031479,-0.00008310,-0.00025788,0.00011606,0.0
 0015559,-0.00038869,-0.00000054,-0.00003307,-0.00001853,-0.00055475,-0
 .00026276,0.00096721,-0.00023598,0.00002165,-0.00005449,0.00044820,0.0
 0001015,0.00004588,0.00008865,-0.00010758,-0.00012071,-0.00028426,0.00
 108426,0.00009823,0.00002048,-0.00003326,0.00007619,0.00005670,-0.0000
 9125,-0.00029597,-0.00006729,0.00010728,-0.00029799,0.00010749,-0.0001
 2216,-0.00009389,0.00002192,0.00004272,-0.00001874,-0.00012464,0.00015
 290,0.00098974,-0.00012888,-0.00004171,-0.00000378,0.00012732,0.000189
 28,-0.00014838,0.00000108,0.00015791,-0.00016106,-0.00008482,-0.000641
 36,-0.00013854,-0.00015576,0.00093870,0.00032389,0.00037987,-0.0001549
 7,0.00113564,-0.00022912,0.00072113,-0.00036787,0.00027389,-0.00040827
 ,0.00010018,0.00007137,-0.00055479,-0.00022872,-0.00001205,-0.00060785
 ,0.00074284,-0.00003817,-0.00000885,0.00012708,0.00000479,-0.00002068,
 -0.00003954,0.00003654,-0.00017953,0.00017253,-0.00000426,0.00015838,0
 .00004344,0.00013907,-0.00011636,0.00036988,-0.00000785,-0.00001820,-0
 .00000503,0.00007685,-0.00009015,-0.00001114,-0.00002186,-0.00001908,-
 0.00010592,0.00000887,-0.00004192,0.00002228,0.00005032,0.00017923,0.0
 0006290,-0.00001013,0.00000649,-0.00000733,0.00001569,-0.00001841,-0.0
 0000767,0.00004059,-0.00006086,0.00000313,-0.00002697,0.00007535,-0.00
 001866,-0.00000363,-0.00014624,-0.00002360,-0.00003512,-0.00006388,0.0
 0016663,0.00001131,0.00003580,0.00033955,0.00000540,0.00001691,-0.0000
 9325,-0.00004510,0.00006787,0.00001639,0.00009115,0.00007178,0.0000832
 4,0.00009684,0.00006000,-0.00006223,-0.00001772,0.00002318,-0.00000126
 ,0.00004588,-0.00008646,0.00001250,-0.00001256,0.00004490,0.00003327,-
 0.00012221,-0.00041875,-0.00047733,-0.00032922,0.00039924,-0.00019174,
 -0.02695538,-0.00263656,-0.00351085,0.01954742,0.00229453,0.00427480,0
 .00670723,0.00090020,0.00949461,0.00958452,0.00052336,-0.00501681,0.00
 001104,0.00000751,-0.00004510,-0.00001220,0.00000218,-0.00000265,-0.00
 001054,0.00000278,0.00000201,0.00001639,-0.00001207,-0.00003518,-0.000
 10286,0.00039140,-0.00154367,-0.00009393,-0.00002383,0.00009277,-0.000
 16170,-0.00117529,0.00221562,0.00080269,0.00066369,0.00018470,-0.00028
 750,-0.00019074,-0.00012802,-0.00084437,-0.00073408,-0.00031705,-0.000
 44184,0.00103550,0.00042923,0.00038567,-0.00126116,-0.00082633,0.00010
 884,-0.00025994,-0.00016925,-0.00137775,0.00018232,0.00118327,0.001040
 07,-0.00013776,-0.00057691,0.00115671,0.00004501,-0.00133057,0.0010020
 2,-0.00061855,-0.00006294,-0.00132267,0.00086106,-0.00016716,-0.000193
 12,0.00000694,0.00005310,0.00052026,-0.00133393,0.00000807,-0.00021779
 ,0.00017136,0.00006751,-0.00064983,0.00160099,-0.00050769,-0.00398725,
 0.00067771,-0.00287665,0.00071927,0.00002869,0.00010668,0.00051898,0.0
 0123716,0.00435215,-0.03468700,-0.05724779,-0.42579883,0.03097176,0.05
 771646,0.43547517,0.00001112,0.00001770,-0.00000134,-0.00002193,-0.000
 00496,-0.00001902,-0.00000857,0.00000040,0.00000392,0.00002146,-0.0000
 0143,0.00000205,-0.00000501,-0.00000216,-0.00000596,0.00000834,-0.0000
 0098,0.00000726,-0.00000748,-0.00000130,-0.00000513,-0.00002421,-0.000
 00246,0.00000309,-0.00001362,-0.00000408,-0.00000832,0.00001171,0.0000
 0282,0.00001978,0.00000912,-0.00000131,0.00001157,-0.00002397,-0.00001
 153,-0.00002668,-0.00000451,-0.00000256,0.00000071,0.00001519,-0.00001
 052,0.00000453,-0.00000629,0.00000646,0.00000409,-0.00000497,-0.000002
 63,-0.00000459,0.00001422,0.00000446,-0.00000431,-0.00005069,0.0000134
 5,0.00002017,0.00004567,-0.00000564,-0.00005642,0.00006346,-0.00004858
 ,-0.00011877,-0.00005270,0.00000372,-0.00001799,0.00000562,-0.00000267
 ,-0.00001672,-0.00010546,-0.00011947,0.00021504,-0.00004993,0.00000536
 ,0.00000769,0.00011296,0.00001636,0.00001001,0.00001825,-0.00000237,-0
 .00004063,-0.00019148,0.00039698,0.00006356,-0.00001237,-0.00003291,-0
 .00000427,0.00003899,0.00002389,-0.00005748,-0.00005810,0.00007542,-0.
 00019176,-0.00013159,-0.00001722,0.00000227,-0.00000256,-0.00000265,-0
 .00001066,-0.00012717,0.00008466,0.00048609,-0.00003688,-0.00001592,0.
 00001348,0.00010170,-0.00001404,0.00007030,0.00001977,-0.00002153,-0.0
 0004919,-0.00013808,-0.00044935,-0.00002220,0.00001635,-0.00030646,-0.
 00007870,0.00118533,0.00012211,-0.00009790,0.00005051,0.00008352,-0.00
 011130,0.00011219,0.00022856,0.00001423,0.00002621,-0.00005450,0.00000
 204,0.00019846,0.00011785,0.00012823,0.00035950,0.00008179,-0.00020796
 ,-0.00008101,-0.00012321,0.00010392,0.00001418,0.00075387,-0.00028513,
 -0.00002568,0.00000879,-0.00005445,-0.00006038,0.00007383,0.00005079,-
 0.00000865,-0.00010315,0.00003492,0.00019501,0.00000246,0.00000726,-0.
 00001148,0.00004675,-0.00001955,-0.00013650,0.00006996,-0.00004893,0.0
 0004164,0.00000197,-0.00000791,-0.00001986,-0.00007193,0.00004313,-0.0
 0000727,0.00004316,-0.00001011,0.00014795,-0.00003731,0.00005792,-0.00
 003036,0.00000312,-0.00000516,0.00000041,0.00000181,-0.00000114,0.0000
 6058,-0.00009307,-0.00009862,0.00000107,-0.00001950,-0.00003007,-0.000
 00527,-0.00002564,-0.00000951,-0.00002411,0.00005659,0.00001301,0.0001
 0006,-0.00000155,0.00001261,-0.00002893,-0.00003404,0.00000141,-0.0000
 1129,0.00004037,0.00000078,0.00001851,0.00000946,0.00001122,-0.0000057
 2,-0.00002315,-0.00000147,-0.00019466,0.00005422,0.00003837,-0.0001129
 1,-0.00007398,-0.00003249,0.00544286,0.00056387,-0.00085401,-0.0034851
 9,-0.00034239,-0.00301960,-0.00132286,-0.00014478,0.00004260,-0.002467
 74,0.00104509,0.00332693,-0.00000648,0.00000012,-0.00000689,0.00002214
 ,0.00000158,-0.00000483,0.00002380,0.00000932,-0.00000129,-0.00000557,
 -0.00000540,-0.00000719,-0.00025374,0.00098539,0.00062482,-0.00006026,
 -0.00018381,-0.00011157,0.00019978,-0.00061378,-0.00069988,-0.00001587
 ,0.00022069,0.00023085,0.00005135,-0.00002828,-0.00002695,-0.00008246,
 -0.00022179,-0.00025016,-0.00013870,0.00002571,-0.00004959,0.00008176,
 -0.00004534,-0.00001917,0.00005871,0.00001171,0.00004021,-0.00020424,-
 0.00000258,-0.00007089,0.00001681,-0.00000246,0.00006683,0.00023263,-0
 .00000471,0.00001412,-0.00002164,-0.00002680,0.00049086,0.00003524,-0.
 00006406,-0.00044125,-0.00002093,-0.00003117,-0.00007513,-0.00024594,0
 .00002745,0.00013748,0.00013901,0.00005675,-0.00018593,0.00010825,-0.0
 0007642,-0.00000589,0.00287124,-0.00225969,0.00462470,-0.00302325,-0.0
 0059627,0.00051676,-0.00149243,-0.00141416,-0.00585676,-0.44027193,0.1
 0832395,0.15832085,0.00170092,-0.00032872,-0.00164170,0.44095087,-0.00
 001714,-0.00001796,-0.00000100,0.00002498,0.00000504,0.00000832,0.0000
 0681,-0.00000996,0.00000310,-0.00001544,0.00000413,-0.00000110,0.00000
 535,0.00000210,0.00000118,-0.00001874,0.00001051,-0.00000307,-0.000001
 08,0.00000001,-0.00000179,0.00002653,-0.00000430,0.00000108,0.00000068
 ,0.00000367,-0.00000168,0.00000176,0.00001994,-0.00002157,0.00001141,0
 .00004104,-0.00000547,-0.00003971,-0.00000162,-0.00002489,0.00000811,0
 .00000348,0.00000313,0.00003423,-0.00001379,0.00000526,-0.00000476,-0.
 00001665,0.00000356,-0.00000783,0.00000118,0.00000202,0.00001661,0.000
 00946,-0.00000792,0.00000892,0.00005248,0.00000432,-0.00002708,-0.0000
 3578,-0.00004026,-0.00007827,-0.00001283,0.00003708,-0.00000399,0.0000
 5286,-0.00003876,-0.00001049,-0.00000021,0.00001314,0.00006694,-0.0005
 0108,-0.00003690,0.00002623,-0.00000758,0.00000911,0.00001367,0.000014
 87,0.00007743,0.00000668,0.00001138,-0.00000700,0.00040226,0.00005480,
 -0.00028267,0.00006303,0.00001857,-0.00003030,0.00007284,-0.00002417,-
 0.00000248,0.00006256,-0.00007021,-0.00022362,0.00009425,0.00002006,0.
 00003254,0.00002464,0.00001083,-0.00002020,0.00002095,-0.00007099,0.00
 039760,0.00002791,0.00004255,0.00002545,-0.00013960,-0.00000936,-0.000
 14991,-0.00001213,0.00003291,0.00000091,-0.00038050,-0.00012076,0.0000
 2900,-0.00049861,-0.00033484,0.00049097,0.00038461,-0.00088703,0.00143
 301,0.00007991,0.00026152,-0.00015127,0.00027550,-0.00009011,-0.000105
 89,-0.00005969,0.00005095,-0.00000455,-0.00001238,-0.00013852,-0.00019
 861,0.00006368,-0.00008203,0.00007310,0.00000242,0.00003749,-0.0000227
 2,0.00013130,-0.00007418,0.00008137,0.00003050,0.00006643,0.00000952,-
 0.00005578,-0.00011630,0.00025631,-0.00001513,0.00002102,-0.00003015,0
 .00006000,-0.00017166,-0.00005097,-0.00000287,0.00005595,-0.00007653,-
 0.00010315,-0.00004479,0.00013788,0.00002318,0.00004444,0.00002281,0.0
 0000292,0.00001509,-0.00000307,0.00000860,0.00003954,-0.00003019,-0.00
 002643,-0.00002670,0.00000047,-0.00000885,0.00001264,-0.00000293,-0.00
 001009,0.00001624,0.00000210,0.00000608,-0.00004949,-0.00009212,0.0000
 7311,-0.00003548,-0.00009167,-0.00001011,0.00002347,0.00003529,0.00001
 377,-0.00000862,-0.00000721,-0.00003819,-0.00009313,-0.00003682,0.0000
 5704,-0.00003158,-0.00003149,-0.00000228,0.00000965,-0.00000149,-0.000
 00546,0.00000977,0.00000183,-0.00000958,0.00001030,0.00000289,0.000111
 44,0.00007803,-0.00033703,-0.00009991,0.00004676,0.00010710,-0.0006406
 5,0.00012838,-0.00068452,0.00026499,-0.00045320,0.00097143,0.00020256,
 -0.00008608,0.00041909,0.00059989,-0.00101870,-0.00001443,-0.00000492,
 -0.00000252,0.00000248,0.00001422,-0.00002214,0.00000294,-0.00001158,-
 0.00001066,0.00000323,0.00000526,0.00000046,-0.00000119,0.00076454,0.0
 0009811,0.00042590,-0.00001109,0.00013640,0.00016445,-0.00053965,0.000
 23052,-0.00079261,0.00007957,-0.00009789,0.00008508,-0.00002203,0.0000
 2248,-0.00001012,-0.00003446,0.00007484,-0.00007167,0.00000065,-0.0000
 5329,0.00010377,-0.00001002,0.00003001,-0.00003264,0.00001707,0.000031
 43,-0.00002426,-0.00004840,-0.00013294,0.00006095,0.00003474,0.0000662
 6,-0.00004698,0.00002911,0.00006586,-0.00005243,0.00005304,-0.00020564
 ,-0.00004528,-0.00017793,0.00023343,0.00003725,-0.00000760,0.00003533,
 -0.00000063,-0.00003802,-0.00022362,-0.00015542,0.00003273,0.00006148,
 0.00002634,-0.00006312,0.00022090,-0.00000776,-0.00010906,-0.00468112,
 -0.00035690,-0.00221479,0.00101758,-0.00055120,-0.00100455,0.00171184,
 0.00086741,0.10034735,-0.03454199,-0.04368486,0.00744118,0.00017593,-0
 .00300698,-0.10558518,0.03907908,-0.00000795,-0.00001271,-0.00000104,0
 .00001351,0.00000819,0.00002260,0.00000564,0.00000558,-0.00000118,-0.0
 0001401,0.00000078,0.00000158,0.00000254,0.00000040,-0.00000084,-0.000
 00420,-0.00000086,-0.00000783,0.00000166,-0.00000400,-0.00000642,0.000
 01759,0.00000743,0.00001811,0.00000412,-0.00000119,-0.00000450,-0.0000
 1011,-0.00000826,-0.00001096,-0.00001479,-0.00001419,-0.00000355,0.000
 03040,0.00001818,0.00002000,-0.00001051,-0.00000231,-0.00000956,-0.000
 01907,0.00001042,-0.00000588,0.00000807,0.00000002,-0.00000081,0.00000
 547,-0.00000016,-0.00000422,-0.00001664,-0.00000454,0.00000673,0.00003
 316,0.00001056,-0.00006302,0.00001695,0.00001193,0.00002663,-0.0000672
 2,-0.00000691,0.00003176,-0.00003328,-0.00000244,0.00003293,-0.0000003
 0,-0.00000488,0.00000853,0.00002059,0.00016122,0.00000968,0.00003815,-
 0.00003806,0.00001362,-0.00001970,0.00003656,0.00003148,0.00000274,-0.
 00001407,0.00000343,-0.00002090,-0.00024741,-0.00001115,0.00000779,-0.
 00000191,-0.00000477,-0.00004025,0.00000683,-0.00000032,-0.00002187,-0
 .00002970,0.00003309,-0.00008719,-0.00002163,-0.00003898,-0.00001302,0
 .00000301,0.00000940,-0.00006867,-0.00003547,0.00001795,-0.00002875,0.
 00001158,-0.00000182,0.00020042,-0.00004695,0.00002487,0.00000854,0.00
 000578,-0.00002075,0.00003762,0.00009071,0.00011538,0.00022049,0.00030
 917,-0.00037675,-0.00034210,0.00139441,-0.00069024,-0.00003294,-0.0000
 5744,0.00001173,0.00003982,-0.00009282,-0.00002515,0.00000584,-0.00002
 208,-0.00001662,0.00001869,-0.00013831,-0.00000398,-0.00009952,-0.0000
 2550,0.00000051,0.00002165,-0.00004031,0.00001700,-0.00002531,0.000068
 57,0.00004393,-0.00001346,0.00002028,-0.00001963,0.00007317,0.00002416
 ,0.00017676,-0.00001046,0.00001347,-0.00001022,-0.00000350,0.00000658,
 0.00007198,0.00000604,-0.00003380,-0.00002112,0.00007709,-0.00008575,-
 0.00012092,-0.00000837,0.00002398,-0.00001844,-0.00000797,0.00001152,0
 .00000720,0.00001018,-0.00005041,0.00004052,-0.00000550,-0.00000575,-0
 .00001359,-0.00000236,0.00002012,0.00000343,0.00000095,-0.00001834,-0.
 00000675,-0.00000805,-0.00002417,0.00001650,-0.00001304,0.00000047,0.0
 0006329,0.00000656,0.00001407,-0.00000216,-0.00000996,-0.00000606,0.00
 000820,0.00000953,-0.00000719,0.00003764,0.00002082,0.00001253,-0.0000
 2990,-0.00000528,-0.00000872,0.00000322,0.00000321,-0.00001580,-0.0000
 0469,0.00000298,0.00001325,0.00000748,-0.00005552,-0.00020845,0.000217
 99,-0.00001794,0.00006993,-0.00000279,-0.00068989,-0.00020379,-0.00185
 068,-0.00142700,0.00047570,0.00082201,0.00008241,0.00000641,0.00067739
 ,0.00077749,0.00027128,0.00049271,0.00000637,-0.00000107,-0.00000463,-
 0.00001999,0.00000597,0.00000414,-0.00001542,-0.00000391,0.00000293,0.
 00000389,0.00000124,-0.00000163,0.00019169,0.00024868,-0.00036431,-0.0
 0001596,0.00001282,0.00004075,-0.00042404,-0.00054477,0.00014030,0.000
 15624,0.00016182,0.00009662,-0.00002544,-0.00002462,-0.00002674,-0.000
 20171,-0.00020811,-0.00013825,-0.00002936,0.00011387,0.00007210,0.0000
 2774,-0.00012472,-0.00009093,0.00000495,-0.00003135,-0.00003022,-0.000
 12629,0.00004533,0.00011967,0.00008417,-0.00001953,-0.00002775,0.00010
 569,-0.00000902,-0.00011446,0.00022435,-0.00008943,0.00004344,-0.00027
 768,0.00013791,-0.00007173,-0.00004252,-0.00000189,0.00000077,0.000104
 13,-0.00009181,0.00009750,-0.00004056,0.00001644,-0.00001610,-0.000061
 96,0.00009574,-0.00007935,0.00272325,-0.00077206,-0.00533041,0.0021632
 5,-0.00016728,0.00115661,-0.00441378,0.00068381,-0.00083182,0.10836159
 ,-0.03415066,-0.09169203,0.04779403,-0.01212211,-0.01719056,-0.1548119
 4,0.04523599,0.11450002\\0.00000003,0.00000003,-0.00000003,-0.00000002
 ,-0.00000006,-0.00000005,0.00000002,-0.00000005,-0.00000001,0.,0.,-0.0
 0000005,-0.00000004,-0.00000005,-0.00000004,-0.00000002,0.,-0.00000010
 ,0.00000001,0.,-0.00000003,0.00000007,-0.00000002,-0.00000005,0.,0.,-0
 .00000008,-0.00000007,0.00000009,-0.00000005,-0.00000003,-0.00000011,-
 0.00000014,0.00000006,-0.00000009,-0.00000001,0.00000005,-0.00000004,-
 0.00000007,-0.00000009,-0.00000001,-0.00000018,0.00000001,-0.00000008,
 -0.00000014,0.00000009,0.,-0.00000013,0.00000003,-0.00000006,-0.000000
 14,0.00000004,-0.00000009,-0.00000012,-0.00000015,-0.00000010,-0.00000
 011,0.00000008,-0.00000005,0.00000005,0.00000003,0.00000016,0.00000009
 ,-0.00000002,-0.00000003,-0.00000003,0.,-0.00000005,0.00000008,0.,0.00
 000004,0.,-0.00000002,-0.00000018,0.00000026,0.,-0.00000006,-0.0000001
 6,0.00000002,0.00000002,-0.00000003,-0.00000003,-0.00000003,-0.0000000
 3,-0.00000001,-0.00000006,-0.00000015,-0.00000003,-0.00000011,-0.00000
 012,0.00000012,-0.00000011,0.00000001,-0.00000006,-0.00000007,0.,0.000
 00006,-0.00000005,-0.00000005,0.00000004,0.,-0.00000014,-0.00000008,0.
 00000014,-0.00000002,-0.00000007,-0.00000019,-0.00000018,0.00000011,0.
 00000025,-0.00000012,0.00000013,0.00000011,0.00000013,0.00000007,-0.00
 000007,0.00000017,0.00000007,0.00000028,0.00000021,0.00000024,-0.00000
 006,-0.00000052,-0.00000009,-0.00000063,0.00000049,-0.00000068,0.00000
 050,0.00000043,0.00000005,-0.00000010,-0.00000010,0.00000002,-0.000000
 02,-0.00000004,0.00000016,-0.00000007,0.00000007,-0.00000024,0.0000001
 8,-0.00000007,0.00000003,0.,0.,0.00000023,-0.00000015,-0.00000033,0.00
 000010,0.00000007,-0.00000004,0.00000006,0.00000008,-0.00000004,0.,-0.
 00000008,0.00000012,-0.00000014,-0.00000004,-0.00000003,-0.00000007,0.
 00000011,-0.00000016,0.00000007,0.00000007,-0.00000013,0.00000001,0.00
 000010,0.00000004,0.,0.,0.00000020,-0.00000015,0.00000008,0.00000012,0
 .00000018,0.,0.00000012,-0.00000005,-0.00000004,-0.00000006,-0.0000000
 4,0.00000008,0.00000018,0.00000007,0.00000012,0.00000012,-0.00000012,0
 .00000021,0.00000010,-0.00000004,0.00000012,0.00000004,-0.00000002,0.0
 0000004,0.00000004,-0.00000009,-0.00000018,0.00000014,0.,-0.00000005,0
 .00000019,0.00000002,0.00000017,0.00000005,-0.00000012,-0.00000019,0.0
 0000014,-0.00000005,0.00000003,0.00000012,0.00000023,-0.00000038,-0.00
 000001,-0.00000008,-0.00000020,0.00000008,0.00000023,-0.00000011,-0.00
 000041,-0.00000007,0.00000002,-0.00000010,-0.00000002,-0.00000002,-0.0
 0000007,0.,-0.00000006,-0.00000007,-0.00000001,-0.00000007,-0.00000005
 ,0.00000015,0.00000022,-0.00000029,-0.00000018,0.00000020,0.00000032,0
 .00000053,-0.00000063,0.00000026,0.,0.00000008,0.00000016,-0.00000008,
 0.00000001,0.00000002,0.00000015,-0.00000039,-0.00000001,0.00000005,0.
 00000012,-0.00000005,0.00000003,-0.00000003,-0.00000002,-0.00000019,-0
 .00000019,0.00000012,0.00000001,0.00000015,-0.00000018,-0.00000019,0.0
 0000059,0.00000021,-0.00000002,-0.00000005,-0.00000003,0.00000004,0.00
 000007,0.00000015,-0.00000027,0.00000093,0.00000029,0.00000007,-0.0000
 0018,-0.00000003,0.00000015,-0.00000012,-0.00000012,-0.00000003,0.0000
 0006,0.00000002,-0.00000016,0.00000011,0.00000013,0.00000004,0.0000001
 4,-0.00000004,0.00000004,0.00000004,0.00000007,-0.00000016,-0.00000030
 ,0.00000017,-0.00000003,0.00000014,-0.00000005,-0.00000003,0.00000009,
 -0.00000006,0.00000003,0.00000009,-0.00000004\\\@


 BE CAREFUL NOT TO BECOME TOO GOOD OF A SONGBIRD OR 
 THEY'LL THROW YOU INTO A CAGE.

                                    -- SNOOPY TO WOODSTOCK
 Job cpu time:      34 days  9 hours 31 minutes 49.1 seconds.
 Elapsed time:       1 days 18 hours 10 minutes 44.1 seconds.
 File lengths (MBytes):  RWF=  63635 Int=      0 D2E=      0 Chk=    209 Scr=      1
 Normal termination of Gaussian 16 at Wed Mar 13 08:24:54 2024.
