 Entering Gaussian System, Link 0=g16
 Input=dry-ofreq-v2.gjf
 Output=dry-ofreq-v2.log
 Initial command:
 /packages/apps/gaussian/g16/g16/l1.exe "/scratch/mdturne9/26scratch/oFreq/Gau-507837.inp" -scrdir="/scratch/mdturne9/26scratch/oFreq/"
 Entering Link 1 = /packages/apps/gaussian/g16/g16/l1.exe PID=    507846.
  
 Copyright (c) 1988,1990,1992,1993,1995,1998,2003,2009,2016,
            Gaussian, Inc.  All Rights Reserved.
  
 This is part of the Gaussian(R) 16 program.  It is based on
 the Gaussian(R) 09 system (copyright 2009, Gaussian, Inc.),
 the Gaussian(R) 03 system (copyright 2003, Gaussian, Inc.),
 the Gaussian(R) 98 system (copyright 1998, Gaussian, Inc.),
 the Gaussian(R) 94 system (copyright 1995, Gaussian, Inc.),
 the Gaussian 92(TM) system (copyright 1992, Gaussian, Inc.),
 the Gaussian 90(TM) system (copyright 1990, Gaussian, Inc.),
 the Gaussian 88(TM) system (copyright 1988, Gaussian, Inc.),
 the Gaussian 86(TM) system (copyright 1986, Carnegie Mellon
 University), and the Gaussian 82(TM) system (copyright 1983,
 Carnegie Mellon University). Gaussian is a federally registered
 trademark of Gaussian, Inc.
  
 This software contains proprietary and confidential information,
 including trade secrets, belonging to Gaussian, Inc.
  
 This software is provided under written license and may be
 used, copied, transmitted, or stored only in accord with that
 written license.
  
 The following legend is applicable only to US Government
 contracts under FAR:
  
                    RESTRICTED RIGHTS LEGEND
  
 Use, reproduction and disclosure by the US Government is
 subject to restrictions as set forth in subparagraphs (a)
 and (c) of the Commercial Computer Software - Restricted
 Rights clause in FAR 52.227-19.
  
 Gaussian, Inc.
 340 Quinnipiac St., Bldg. 40, Wallingford CT 06492
  
  
 ---------------------------------------------------------------
 Warning -- This program may not be used in any manner that
 competes with the business of Gaussian, Inc. or will provide
 assistance to any competitor of Gaussian, Inc.  The licensee
 of this program is prohibited from giving any competitor of
 Gaussian, Inc. access to this program.  By using this program,
 the user acknowledges that Gaussian, Inc. is engaged in the
 business of creating and licensing software in the field of
 computational chemistry and represents and warrants to the
 licensee that it is not a competitor of Gaussian, Inc. and that
 it will not use this program in any manner prohibited above.
 ---------------------------------------------------------------
  

 Cite this work as:
 Gaussian 16, Revision A.03,
 M. J. Frisch, G. W. Trucks, H. B. Schlegel, G. E. Scuseria, 
 M. A. Robb, J. R. Cheeseman, G. Scalmani, V. Barone, 
 G. A. Petersson, H. Nakatsuji, X. Li, M. Caricato, A. V. Marenich, 
 J. Bloino, B. G. Janesko, R. Gomperts, B. Mennucci, H. P. Hratchian, 
 J. V. Ortiz, A. F. Izmaylov, J. L. Sonnenberg, D. Williams-Young, 
 F. Ding, F. Lipparini, F. Egidi, J. Goings, B. Peng, A. Petrone, 
 T. Henderson, D. Ranasinghe, V. G. Zakrzewski, J. Gao, N. Rega, 
 G. Zheng, W. Liang, M. Hada, M. Ehara, K. Toyota, R. Fukuda, 
 J. Hasegawa, M. Ishida, T. Nakajima, Y. Honda, O. Kitao, H. Nakai, 
 T. Vreven, K. Throssell, J. A. Montgomery, Jr., J. E. Peralta, 
 F. Ogliaro, M. J. Bearpark, J. J. Heyd, E. N. Brothers, K. N. Kudin, 
 V. N. Staroverov, T. A. Keith, R. Kobayashi, J. Normand, 
 K. Raghavachari, A. P. Rendell, J. C. Burant, S. S. Iyengar, 
 J. Tomasi, M. Cossi, J. M. Millam, M. Klene, C. Adamo, R. Cammi, 
 J. W. Ochterski, R. L. Martin, K. Morokuma, O. Farkas, 
 J. B. Foresman, and D. J. Fox, Gaussian, Inc., Wallingford CT, 2016.
 
 ******************************************
 Gaussian 16:  ES64L-G16RevA.03 25-Dec-2016
                10-Mar-2024 
 ******************************************
 %oldchk=Dry-ofreq.chk
 %nprocshared=20
 Will use up to   20 processors via shared memory.
 %mem=15GB
 %chk=dry-ofreq-v2.chk
 Copying data from "Dry-ofreq.chk" to current chk file "dry-ofreq-v2.chk"
 IOpt=  2 FromEx=T IUOpen= 4 IOptOp= 5 NList=   0 IFRang= 0 IUIn= 4 IUOut= 2.
 ---------------------------------------------------
 #p opt=readfc freq wb97xd/6-311+g(2d,2p) guess=read
 ---------------------------------------------------
 1/10=3,18=20,19=15,26=3,38=1/1,3;
 2/9=110,12=2,17=6,18=5,40=1/2;
 3/5=4,6=6,7=212,11=2,25=1,30=1,71=1,74=-58,116=-2/1,2,3;
 4/5=1/1;
 5/5=2,38=6/2;
 6/7=2,8=2,9=2,10=2,28=1/1;
 7//1,2,3,16;
 1/18=20,19=15,26=3/3(2);
 2/9=110/2;
 99//99;
 2/9=110/2;
 3/5=4,6=6,7=212,11=2,25=1,30=1,71=1,74=-58/1,2,3;
 4/5=5,16=3,69=1/1;
 5/5=2,38=5/2;
 7//1,2,3,16;
 1/18=20,19=15,26=3/3(-5);
 2/9=110/2;
 6/7=2,8=2,9=2,10=2,19=2,28=1/1;
 99/9=1/99;
 Leave Link    1 at Sun Mar 10 14:44:03 2024, MaxMem=  2013265920 cpu:              12.9 elap:               1.0
 (Enter /packages/apps/gaussian/g16/g16/l101.exe)
 --------
 Required
 --------
 Symbolic Z-matrix:
 Charge =  0 Multiplicity = 1
 C                     4.95622  -3.78214   0.2158 
 C                     4.40633  -2.49638  -0.40272 
 H                     4.46366  -4.66152  -0.19937 
 H                     6.02698  -3.86856   0.02645 
 H                     4.81168  -3.79618   1.29737 
 C                     5.09997  -1.25525   0.1867 
 H                     4.62511  -2.51978  -1.47415 
 C                     4.65856   0.04568  -0.47441 
 H                     5.03534   0.08615  -1.50143 
 H                     3.57135   0.03935  -0.55223 
 C                     5.07489   1.30325   0.27964 
 C                     4.37246   2.57291  -0.22953 
 H                     4.66803   2.72046  -1.27222 
 C                     4.81487   3.80314   0.56571 
 H                     4.34491   4.70927   0.18302 
 H                     4.54308   3.70426   1.61828 
 H                     5.89723   3.92892   0.51057 
 C                     2.90183  -2.375    -0.25689 
 C                     2.28898  -2.44749   0.99249 
 C                     2.10464  -2.08422  -1.36001 
 C                     0.92674  -2.2371    1.1325 
 H                     2.88408  -2.64313   1.87544 
 C                     0.74325  -1.86339  -1.22638 
 H                     2.56411  -1.99267  -2.33641 
 C                     0.13603  -1.95304   0.02277 
 H                     0.47376  -2.25732   2.1162 
 H                     0.1451   -1.58694  -2.08639 
 C                     2.86507   2.40718  -0.21113 
 C                     2.19511   2.08841   0.9695 
 C                     2.12029   2.49712  -1.38178 
 C                     0.83181   1.8551    0.97795 
 H                     2.75013   1.9859    1.89338 
 C                     0.7504    2.27352  -1.37943 
 H                     2.62278   2.71521  -2.31608 
 C                     0.0898    1.95954  -0.19793 
 H                     0.33162   1.55764   1.89189 
 H                     0.19475   2.30471  -2.30862 
 C                    -1.37441   1.6432   -0.18792 
 H                    -1.70064   1.2385   -1.1444 
 H                    -1.58957   0.95111   0.62006 
 C                    -1.32426  -1.65362   0.17023 
 H                    -1.54702  -1.24466   1.15423 
 H                    -1.6358   -0.97085  -0.61422 
 C                    -3.67816   2.28501   0.22222 
 H                    -4.35564   3.12063   0.3845 
 H                    -3.92533   1.77151  -0.70483 
 H                    -3.70098   1.62154   1.0827 
 C                    -2.25046   3.78204  -1.04915 
 H                    -1.23781   4.16327  -1.14729 
 H                    -2.55326   3.24284  -1.9459 
 H                    -2.93558   4.60064  -0.83976 
 C                    -1.92235   3.50059   1.36467 
 H                    -1.92632   2.74876   2.15412 
 H                    -0.9357    3.94139   1.25895 
 H                    -2.65835   4.27591   1.56466 
 C                    -3.65154  -2.32708   0.03744 
 H                    -4.33191  -3.17185  -0.04638 
 H                    -3.7958   -1.81795   0.98828 
 H                    -3.7844   -1.66339  -0.81282 
 C                    -2.02784  -3.5222   -1.30393 
 H                    -2.1354   -2.77256  -2.08814 
 H                    -1.03009  -3.95031  -1.31576 
 H                    -2.7722   -4.3074   -1.41434 
 C                    -2.06295  -3.80163   1.13214 
 H                    -1.04075  -4.16912   1.10966 
 H                    -2.26455  -3.2641    2.0579 
 H                    -2.75721  -4.62956   1.00627 
 N                    -2.29205   2.82713   0.08966 
 N                    -2.25229  -2.85026   0.00534 
 C                    -2.83632  -0.1143    3.02609 
 O                    -1.84258   0.50575   2.6129 
 O                    -3.07403  -1.33721   2.9954 
 O                    -3.83454   0.69069   3.55776 
 H                    -4.51669   0.08297   3.85174 
 C                    -3.17963   0.07369  -2.84391 
 O                    -2.13227  -0.52835  -2.55597 
 O                    -3.43453   1.29202  -2.78048 
 O                    -4.22017  -0.74899  -3.25409 
 H                    -4.94355  -0.1535   -3.4619 
 H                     6.15698   1.44853   0.21966 
 H                     6.18343  -1.37888   0.10443 
 H                     4.875    -1.21021   1.25733 
 H                     4.84473   1.17625   1.34213 
 
 Add virtual bond connecting atoms O76        and H43        Dist= 3.88D+00.
 Add virtual bond connecting atoms O77        and H46        Dist= 4.13D+00.
 Add virtual bond connecting atoms O71        and H40        Dist= 3.89D+00.
 Add virtual bond connecting atoms O72        and H58        Dist= 4.13D+00.
 ITRead=  0  0  0  0  0  0  0  0  0  0  0  0  0  0  0  0  0  0  0  0
 ITRead=  0  0  0  0  0  0  0  0  0  0  0  0  0  0  0  0  0  0  0  0
 ITRead=  0  0  0  0  0  0  0  0  0  0  0  0  0  0  0  0  0  0  0  0
 ITRead=  0  0  0  0  0  0  0  0  0  0  0  0  0  0  0  0  0  0  0  0
 ITRead=  0  0  0
 MicOpt= -1 -1 -1 -1 -1 -1 -1 -1 -1 -1 -1 -1 -1 -1 -1 -1 -1 -1 -1 -1
 MicOpt= -1 -1 -1 -1 -1 -1 -1 -1 -1 -1 -1 -1 -1 -1 -1 -1 -1 -1 -1 -1
 MicOpt= -1 -1 -1 -1 -1 -1 -1 -1 -1 -1 -1 -1 -1 -1 -1 -1 -1 -1 -1 -1
 MicOpt= -1 -1 -1 -1 -1 -1 -1 -1 -1 -1 -1 -1 -1 -1 -1 -1 -1 -1 -1 -1
 MicOpt= -1 -1 -1
 NAtoms=     83 NQM=       83 NQMF=       0 NMMI=      0 NMMIF=      0
                NMic=       0 NMicF=      0.
                    Isotopes and Nuclear Properties:
 (Nuclear quadrupole moments (NQMom) in fm**2, nuclear magnetic moments (NMagM)
  in nuclear magnetons)

  Atom         1           2           3           4           5           6           7           8           9          10
 IAtWgt=          12          12           1           1           1          12           1          12           1           1
 AtmWgt=  12.0000000  12.0000000   1.0078250   1.0078250   1.0078250  12.0000000   1.0078250  12.0000000   1.0078250   1.0078250
 NucSpn=           0           0           1           1           1           0           1           0           1           1
 AtZEff=  -0.0000000  -0.0000000  -0.0000000  -0.0000000  -0.0000000  -0.0000000  -0.0000000  -0.0000000  -0.0000000  -0.0000000
 NQMom=    0.0000000   0.0000000   0.0000000   0.0000000   0.0000000   0.0000000   0.0000000   0.0000000   0.0000000   0.0000000
 NMagM=    0.0000000   0.0000000   2.7928460   2.7928460   2.7928460   0.0000000   2.7928460   0.0000000   2.7928460   2.7928460
 AtZNuc=   6.0000000   6.0000000   1.0000000   1.0000000   1.0000000   6.0000000   1.0000000   6.0000000   1.0000000   1.0000000

  Atom        11          12          13          14          15          16          17          18          19          20
 IAtWgt=          12          12           1          12           1           1           1          12          12          12
 AtmWgt=  12.0000000  12.0000000   1.0078250  12.0000000   1.0078250   1.0078250   1.0078250  12.0000000  12.0000000  12.0000000
 NucSpn=           0           0           1           0           1           1           1           0           0           0
 AtZEff=  -0.0000000  -0.0000000  -0.0000000  -0.0000000  -0.0000000  -0.0000000  -0.0000000  -0.0000000  -0.0000000  -0.0000000
 NQMom=    0.0000000   0.0000000   0.0000000   0.0000000   0.0000000   0.0000000   0.0000000   0.0000000   0.0000000   0.0000000
 NMagM=    0.0000000   0.0000000   2.7928460   0.0000000   2.7928460   2.7928460   2.7928460   0.0000000   0.0000000   0.0000000
 AtZNuc=   6.0000000   6.0000000   1.0000000   6.0000000   1.0000000   1.0000000   1.0000000   6.0000000   6.0000000   6.0000000

  Atom        21          22          23          24          25          26          27          28          29          30
 IAtWgt=          12           1          12           1          12           1           1          12          12          12
 AtmWgt=  12.0000000   1.0078250  12.0000000   1.0078250  12.0000000   1.0078250   1.0078250  12.0000000  12.0000000  12.0000000
 NucSpn=           0           1           0           1           0           1           1           0           0           0
 AtZEff=  -0.0000000  -0.0000000  -0.0000000  -0.0000000  -0.0000000  -0.0000000  -0.0000000  -0.0000000  -0.0000000  -0.0000000
 NQMom=    0.0000000   0.0000000   0.0000000   0.0000000   0.0000000   0.0000000   0.0000000   0.0000000   0.0000000   0.0000000
 NMagM=    0.0000000   2.7928460   0.0000000   2.7928460   0.0000000   2.7928460   2.7928460   0.0000000   0.0000000   0.0000000
 AtZNuc=   6.0000000   1.0000000   6.0000000   1.0000000   6.0000000   1.0000000   1.0000000   6.0000000   6.0000000   6.0000000

  Atom        31          32          33          34          35          36          37          38          39          40
 IAtWgt=          12           1          12           1          12           1           1          12           1           1
 AtmWgt=  12.0000000   1.0078250  12.0000000   1.0078250  12.0000000   1.0078250   1.0078250  12.0000000   1.0078250   1.0078250
 NucSpn=           0           1           0           1           0           1           1           0           1           1
 AtZEff=  -0.0000000  -0.0000000  -0.0000000  -0.0000000  -0.0000000  -0.0000000  -0.0000000  -0.0000000  -0.0000000  -0.0000000
 NQMom=    0.0000000   0.0000000   0.0000000   0.0000000   0.0000000   0.0000000   0.0000000   0.0000000   0.0000000   0.0000000
 NMagM=    0.0000000   2.7928460   0.0000000   2.7928460   0.0000000   2.7928460   2.7928460   0.0000000   2.7928460   2.7928460
 AtZNuc=   6.0000000   1.0000000   6.0000000   1.0000000   6.0000000   1.0000000   1.0000000   6.0000000   1.0000000   1.0000000

  Atom        41          42          43          44          45          46          47          48          49          50
 IAtWgt=          12           1           1          12           1           1           1          12           1           1
 AtmWgt=  12.0000000   1.0078250   1.0078250  12.0000000   1.0078250   1.0078250   1.0078250  12.0000000   1.0078250   1.0078250
 NucSpn=           0           1           1           0           1           1           1           0           1           1
 AtZEff=  -0.0000000  -0.0000000  -0.0000000  -0.0000000  -0.0000000  -0.0000000  -0.0000000  -0.0000000  -0.0000000  -0.0000000
 NQMom=    0.0000000   0.0000000   0.0000000   0.0000000   0.0000000   0.0000000   0.0000000   0.0000000   0.0000000   0.0000000
 NMagM=    0.0000000   2.7928460   2.7928460   0.0000000   2.7928460   2.7928460   2.7928460   0.0000000   2.7928460   2.7928460
 AtZNuc=   6.0000000   1.0000000   1.0000000   6.0000000   1.0000000   1.0000000   1.0000000   6.0000000   1.0000000   1.0000000

  Atom        51          52          53          54          55          56          57          58          59          60
 IAtWgt=           1          12           1           1           1          12           1           1           1          12
 AtmWgt=   1.0078250  12.0000000   1.0078250   1.0078250   1.0078250  12.0000000   1.0078250   1.0078250   1.0078250  12.0000000
 NucSpn=           1           0           1           1           1           0           1           1           1           0
 AtZEff=  -0.0000000  -0.0000000  -0.0000000  -0.0000000  -0.0000000  -0.0000000  -0.0000000  -0.0000000  -0.0000000  -0.0000000
 NQMom=    0.0000000   0.0000000   0.0000000   0.0000000   0.0000000   0.0000000   0.0000000   0.0000000   0.0000000   0.0000000
 NMagM=    2.7928460   0.0000000   2.7928460   2.7928460   2.7928460   0.0000000   2.7928460   2.7928460   2.7928460   0.0000000
 AtZNuc=   1.0000000   6.0000000   1.0000000   1.0000000   1.0000000   6.0000000   1.0000000   1.0000000   1.0000000   6.0000000

  Atom        61          62          63          64          65          66          67          68          69          70
 IAtWgt=           1           1           1          12           1           1           1          14          14          12
 AtmWgt=   1.0078250   1.0078250   1.0078250  12.0000000   1.0078250   1.0078250   1.0078250  14.0030740  14.0030740  12.0000000
 NucSpn=           1           1           1           0           1           1           1           2           2           0
 AtZEff=  -0.0000000  -0.0000000  -0.0000000  -0.0000000  -0.0000000  -0.0000000  -0.0000000  -0.0000000  -0.0000000  -0.0000000
 NQMom=    0.0000000   0.0000000   0.0000000   0.0000000   0.0000000   0.0000000   0.0000000   2.0440000   2.0440000   0.0000000
 NMagM=    2.7928460   2.7928460   2.7928460   0.0000000   2.7928460   2.7928460   2.7928460   0.4037610   0.4037610   0.0000000
 AtZNuc=   1.0000000   1.0000000   1.0000000   6.0000000   1.0000000   1.0000000   1.0000000   7.0000000   7.0000000   6.0000000

  Atom        71          72          73          74          75          76          77          78          79          80
 IAtWgt=          16          16          16           1          12          16          16          16           1           1
 AtmWgt=  15.9949146  15.9949146  15.9949146   1.0078250  12.0000000  15.9949146  15.9949146  15.9949146   1.0078250   1.0078250
 NucSpn=           0           0           0           1           0           0           0           0           1           1
 AtZEff=  -0.0000000  -0.0000000  -0.0000000  -0.0000000  -0.0000000  -0.0000000  -0.0000000  -0.0000000  -0.0000000  -0.0000000
 NQMom=    0.0000000   0.0000000   0.0000000   0.0000000   0.0000000   0.0000000   0.0000000   0.0000000   0.0000000   0.0000000
 NMagM=    0.0000000   0.0000000   0.0000000   2.7928460   0.0000000   0.0000000   0.0000000   0.0000000   2.7928460   2.7928460
 AtZNuc=   8.0000000   8.0000000   8.0000000   1.0000000   6.0000000   8.0000000   8.0000000   8.0000000   1.0000000   1.0000000

  Atom        81          82          83
 IAtWgt=           1           1           1
 AtmWgt=   1.0078250   1.0078250   1.0078250
 NucSpn=           1           1           1
 AtZEff=  -0.0000000  -0.0000000  -0.0000000
 NQMom=    0.0000000   0.0000000   0.0000000
 NMagM=    2.7928460   2.7928460   2.7928460
 AtZNuc=   1.0000000   1.0000000   1.0000000
 Leave Link  101 at Sun Mar 10 14:44:03 2024, MaxMem=  2013265920 cpu:               4.9 elap:               0.4
 (Enter /packages/apps/gaussian/g16/g16/l103.exe)

 GradGradGradGradGradGradGradGradGradGradGradGradGradGradGradGradGradGrad
 Berny optimization.
 Initialization pass.
 Force constant matrix read from checkpoint file:
 "dry-ofreq-v2.chk"
 NVar current= 466 chk= 466 common= 466.
                           ----------------------------
                           !    Initial Parameters    !
                           ! (Angstroms and Degrees)  !
 --------------------------                            --------------------------
 ! Name  Definition              Value          Derivative Info.                !
 --------------------------------------------------------------------------------
 ! R1    R(1,2)                  1.5291         D2E/DX2 =    0.284              !
 ! R2    R(1,3)                  1.0901         D2E/DX2 =    0.3417             !
 ! R3    R(1,4)                  1.0908         D2E/DX2 =    0.3401             !
 ! R4    R(1,5)                  1.0913         D2E/DX2 =    0.3396             !
 ! R5    R(2,6)                  1.5391         D2E/DX2 =    0.2718             !
 ! R6    R(2,7)                  1.0938         D2E/DX2 =    0.3291             !
 ! R7    R(2,18)                 1.5164         D2E/DX2 =    0.2857             !
 ! R8    R(6,8)                  1.5246         D2E/DX2 =    0.2864             !
 ! R9    R(6,81)                 1.0936         D2E/DX2 =    0.3316             !
 ! R10   R(6,82)                 1.0949         D2E/DX2 =    0.3291             !
 ! R11   R(8,9)                  1.0947         D2E/DX2 =    0.329              !
 ! R12   R(8,10)                 1.09           D2E/DX2 =    0.3423             !
 ! R13   R(8,11)                 1.5243         D2E/DX2 =    0.2882             !
 ! R14   R(11,12)                1.5378         D2E/DX2 =    0.2716             !
 ! R15   R(11,80)                1.0934         D2E/DX2 =    0.332              !
 ! R16   R(11,83)                1.0945         D2E/DX2 =    0.3299             !
 ! R17   R(12,13)                1.0938         D2E/DX2 =    0.3291             !
 ! R18   R(12,14)                1.5302         D2E/DX2 =    0.2823             !
 ! R19   R(12,28)                1.5166         D2E/DX2 =    0.2847             !
 ! R20   R(14,15)                1.0901         D2E/DX2 =    0.3417             !
 ! R21   R(14,16)                1.0916         D2E/DX2 =    0.3388             !
 ! R22   R(14,17)                1.091          D2E/DX2 =    0.3396             !
 ! R23   R(18,19)                1.3935         D2E/DX2 =    0.386              !
 ! R24   R(18,20)                1.3917         D2E/DX2 =    0.3919             !
 ! R25   R(19,21)                1.3855         D2E/DX2 =    0.3984             !
 ! R26   R(19,22)                1.0826         D2E/DX2 =    0.3596             !
 ! R27   R(20,23)                1.3856         D2E/DX2 =    0.3941             !
 ! R28   R(20,24)                1.083          D2E/DX2 =    0.3583             !
 ! R29   R(21,25)                1.3919         D2E/DX2 =    0.3926             !
 ! R30   R(21,26)                1.0832         D2E/DX2 =    0.3587             !
 ! R31   R(23,25)                1.3918         D2E/DX2 =    0.3933             !
 ! R32   R(23,27)                1.0834         D2E/DX2 =    0.3589             !
 ! R33   R(25,41)                1.4979         D2E/DX2 =    0.3112             !
 ! R34   R(28,29)                1.3944         D2E/DX2 =    0.3828             !
 ! R35   R(28,30)                1.3904         D2E/DX2 =    0.3949             !
 ! R36   R(29,31)                1.3831         D2E/DX2 =    0.4002             !
 ! R37   R(29,32)                1.0826         D2E/DX2 =    0.3593             !
 ! R38   R(30,33)                1.388          D2E/DX2 =    0.3929             !
 ! R39   R(30,34)                1.083          D2E/DX2 =    0.3582             !
 ! R40   R(31,35)                1.3943         D2E/DX2 =    0.3888             !
 ! R41   R(31,36)                1.0835         D2E/DX2 =    0.3589             !
 ! R42   R(33,35)                1.3896         D2E/DX2 =    0.3971             !
 ! R43   R(33,37)                1.0831         D2E/DX2 =    0.359              !
 ! R44   R(35,38)                1.498          D2E/DX2 =    0.3114             !
 ! R45   R(38,39)                1.0886         D2E/DX2 =    0.3468             !
 ! R46   R(38,40)                1.0854         D2E/DX2 =    0.3479             !
 ! R47   R(38,68)                1.5234         D2E/DX2 =    0.2641             !
 ! R48   R(40,71)                2.0576         D2E/DX2 =    0.0236             !
 ! R49   R(41,42)                1.0886         D2E/DX2 =    0.3456             !
 ! R50   R(41,43)                1.0856         D2E/DX2 =    0.3482             !
 ! R51   R(41,69)                1.5233         D2E/DX2 =    0.2626             !
 ! R52   R(43,76)                2.0525         D2E/DX2 =    0.023              !
 ! R53   R(44,45)                1.0879         D2E/DX2 =    0.3478             !
 ! R54   R(44,46)                1.0882         D2E/DX2 =    0.3452             !
 ! R55   R(44,47)                1.0868         D2E/DX2 =    0.3528             !
 ! R56   R(44,68)                1.4942         D2E/DX2 =    0.2949             !
 ! R57   R(46,77)                2.1861         D2E/DX2 =    0.013              !
 ! R58   R(48,49)                1.0865         D2E/DX2 =    0.3524             !
 ! R59   R(48,50)                1.0893         D2E/DX2 =    0.3441             !
 ! R60   R(48,51)                1.0878         D2E/DX2 =    0.3481             !
 ! R61   R(48,68)                1.4868         D2E/DX2 =    0.3076             !
 ! R62   R(52,53)                1.0902         D2E/DX2 =    0.3421             !
 ! R63   R(52,54)                1.0858         D2E/DX2 =    0.3537             !
 ! R64   R(52,55)                1.0876         D2E/DX2 =    0.3488             !
 ! R65   R(52,68)                1.4886         D2E/DX2 =    0.3043             !
 ! R66   R(56,57)                1.0879         D2E/DX2 =    0.348              !
 ! R67   R(56,58)                1.0882         D2E/DX2 =    0.3444             !
 ! R68   R(56,59)                1.0868         D2E/DX2 =    0.3528             !
 ! R69   R(56,69)                1.4942         D2E/DX2 =    0.2943             !
 ! R70   R(58,72)                2.1865         D2E/DX2 =    0.0129             !
 ! R71   R(60,61)                1.0902         D2E/DX2 =    0.3421             !
 ! R72   R(60,62)                1.0858         D2E/DX2 =    0.3536             !
 ! R73   R(60,63)                1.0876         D2E/DX2 =    0.3486             !
 ! R74   R(60,69)                1.4886         D2E/DX2 =    0.3044             !
 ! R75   R(64,65)                1.0865         D2E/DX2 =    0.3521             !
 ! R76   R(64,66)                1.0893         D2E/DX2 =    0.3448             !
 ! R77   R(64,67)                1.0878         D2E/DX2 =    0.3482             !
 ! R78   R(64,69)                1.4868         D2E/DX2 =    0.3077             !
 ! R79   R(70,71)                1.2421         D2E/DX2 =    0.6603             !
 ! R80   R(70,72)                1.2462         D2E/DX2 =    0.649              !
 ! R81   R(70,73)                1.3882         D2E/DX2 =    0.3254             !
 ! R82   R(73,74)                0.9597         D2E/DX2 =    0.5456             !
 ! R83   R(75,76)                1.2419         D2E/DX2 =    0.6631             !
 ! R84   R(75,77)                1.2463         D2E/DX2 =    0.6518             !
 ! R85   R(75,78)                1.3884         D2E/DX2 =    0.3249             !
 ! R86   R(78,79)                0.9597         D2E/DX2 =    0.5457             !
 ! A1    A(2,1,3)              111.2092         D2E/DX2 =    0.1026             !
 ! A2    A(2,1,4)              110.4515         D2E/DX2 =    0.1032             !
 ! A3    A(2,1,5)              111.3513         D2E/DX2 =    0.1058             !
 ! A4    A(3,1,4)              108.2724         D2E/DX2 =    0.051              !
 ! A5    A(3,1,5)              107.8931         D2E/DX2 =    0.052              !
 ! A6    A(4,1,5)              107.5203         D2E/DX2 =    0.0514             !
 ! A7    A(1,2,6)              111.1666         D2E/DX2 =    0.0736             !
 ! A8    A(1,2,7)              107.8368         D2E/DX2 =    0.0244             !
 ! A9    A(1,2,18)             112.6564         D2E/DX2 =    0.0569             !
 ! A10   A(6,2,7)              107.5918         D2E/DX2 =    0.0241             !
 ! A11   A(6,2,18)             110.2277         D2E/DX2 =    0.0473             !
 ! A12   A(7,2,18)             107.1193         D2E/DX2 =    0.0226             !
 ! A13   A(2,6,8)              113.0508         D2E/DX2 =    0.1223             !
 ! A14   A(2,6,81)             109.0578         D2E/DX2 =    0.0486             !
 ! A15   A(2,6,82)             108.3624         D2E/DX2 =    0.0472             !
 ! A16   A(8,6,81)             110.5296         D2E/DX2 =    0.0466             !
 ! A17   A(8,6,82)             109.2336         D2E/DX2 =    0.0457             !
 ! A18   A(81,6,82)            106.3658         D2E/DX2 =    0.0173             !
 ! A19   A(6,8,9)              109.7984         D2E/DX2 =    0.0483             !
 ! A20   A(6,8,10)             108.3478         D2E/DX2 =    0.051              !
 ! A21   A(6,8,11)             114.2305         D2E/DX2 =    0.1146             !
 ! A22   A(9,8,10)             106.0534         D2E/DX2 =    0.0172             !
 ! A23   A(9,8,11)             109.8526         D2E/DX2 =    0.0485             !
 ! A24   A(10,8,11)            108.2132         D2E/DX2 =    0.0512             !
 ! A25   A(8,11,12)            113.1181         D2E/DX2 =    0.1153             !
 ! A26   A(8,11,80)            110.6577         D2E/DX2 =    0.0464             !
 ! A27   A(8,11,83)            109.0893         D2E/DX2 =    0.0451             !
 ! A28   A(12,11,80)           108.916          D2E/DX2 =    0.0477             !
 ! A29   A(12,11,83)           108.7335         D2E/DX2 =    0.0467             !
 ! A30   A(80,11,83)           106.0675         D2E/DX2 =    0.0172             !
 ! A31   A(11,12,13)           107.6731         D2E/DX2 =    0.0247             !
 ! A32   A(11,12,14)           111.0786         D2E/DX2 =    0.0729             !
 ! A33   A(11,12,28)           111.0865         D2E/DX2 =    0.049              !
 ! A34   A(13,12,14)           107.9895         D2E/DX2 =    0.0241             !
 ! A35   A(13,12,28)           107.1512         D2E/DX2 =    0.0226             !
 ! A36   A(14,12,28)           111.6485         D2E/DX2 =    0.0555             !
 ! A37   A(12,14,15)           111.1726         D2E/DX2 =    0.103              !
 ! A38   A(12,14,16)           110.8738         D2E/DX2 =    0.1052             !
 ! A39   A(12,14,17)           110.6854         D2E/DX2 =    0.103              !
 ! A40   A(15,14,16)           107.8455         D2E/DX2 =    0.0515             !
 ! A41   A(15,14,17)           108.307          D2E/DX2 =    0.0513             !
 ! A42   A(16,14,17)           107.8292         D2E/DX2 =    0.051              !
 ! A43   A(2,18,19)            121.2248         D2E/DX2 =    0.1099             !
 ! A44   A(2,18,20)            120.5845         D2E/DX2 =    0.106              !
 ! A45   A(19,18,20)           118.0084         D2E/DX2 =    0.0864             !
 ! A46   A(18,19,21)           121.0057         D2E/DX2 =    0.0822             !
 ! A47   A(18,19,22)           119.9266         D2E/DX2 =    0.0837             !
 ! A48   A(21,19,22)           119.0451         D2E/DX2 =    0.0849             !
 ! A49   A(18,20,23)           121.3084         D2E/DX2 =    0.0834             !
 ! A50   A(18,20,24)           119.2913         D2E/DX2 =    0.0843             !
 ! A51   A(23,20,24)           119.361          D2E/DX2 =    0.0843             !
 ! A52   A(19,21,25)           120.5953         D2E/DX2 =    0.0833             !
 ! A53   A(19,21,26)           120.0075         D2E/DX2 =    0.084              !
 ! A54   A(25,21,26)           119.3603         D2E/DX2 =    0.085              !
 ! A55   A(20,23,25)           120.3267         D2E/DX2 =    0.0832             !
 ! A56   A(20,23,27)           120.4343         D2E/DX2 =    0.0847             !
 ! A57   A(25,23,27)           119.2081         D2E/DX2 =    0.0875             !
 ! A58   A(21,25,23)           118.7413         D2E/DX2 =    0.0868             !
 ! A59   A(21,25,41)           121.0715         D2E/DX2 =    0.1155             !
 ! A60   A(23,25,41)           120.0522         D2E/DX2 =    0.1163             !
 ! A61   A(12,28,29)           120.8509         D2E/DX2 =    0.1073             !
 ! A62   A(12,28,30)           121.0064         D2E/DX2 =    0.1074             !
 ! A63   A(29,28,30)           118.0533         D2E/DX2 =    0.0863             !
 ! A64   A(28,29,31)           121.1519         D2E/DX2 =    0.0829             !
 ! A65   A(28,29,32)           119.8591         D2E/DX2 =    0.0835             !
 ! A66   A(31,29,32)           118.9542         D2E/DX2 =    0.0847             !
 ! A67   A(28,30,33)           121.1191         D2E/DX2 =    0.0829             !
 ! A68   A(28,30,34)           119.3944         D2E/DX2 =    0.0839             !
 ! A69   A(33,30,34)           119.4591         D2E/DX2 =    0.0839             !
 ! A70   A(29,31,35)           120.4464         D2E/DX2 =    0.0833             !
 ! A71   A(29,31,36)           120.4299         D2E/DX2 =    0.0857             !
 ! A72   A(35,31,36)           119.0946         D2E/DX2 =    0.0883             !
 ! A73   A(30,33,35)           120.4664         D2E/DX2 =    0.0832             !
 ! A74   A(30,33,37)           120.0148         D2E/DX2 =    0.0836             !
 ! A75   A(35,33,37)           119.4753         D2E/DX2 =    0.0847             !
 ! A76   A(31,35,33)           118.7495         D2E/DX2 =    0.087              !
 ! A77   A(31,35,38)           119.9133         D2E/DX2 =    0.1166             !
 ! A78   A(33,35,38)           121.2029         D2E/DX2 =    0.1151             !
 ! A79   A(35,38,39)           111.4411         D2E/DX2 =    0.0391             !
 ! A80   A(35,38,40)           109.4743         D2E/DX2 =    0.0511             !
 ! A81   A(35,38,68)           115.2057         D2E/DX2 =    0.1187             !
 ! A82   A(39,38,40)           110.9525         D2E/DX2 =    0.0205             !
 ! A83   A(39,38,68)           105.5746         D2E/DX2 =    0.0516             !
 ! A84   A(40,38,68)           103.9157         D2E/DX2 =    0.0852             !
 ! A85   A(38,40,71)           152.0495         D2E/DX2 =    0.0551             !
 ! A86   A(25,41,42)           111.3175         D2E/DX2 =    0.0391             !
 ! A87   A(25,41,43)           109.5319         D2E/DX2 =    0.0508             !
 ! A88   A(25,41,69)           115.2292         D2E/DX2 =    0.1167             !
 ! A89   A(42,41,43)           110.9865         D2E/DX2 =    0.0205             !
 ! A90   A(42,41,69)           105.5629         D2E/DX2 =    0.0502             !
 ! A91   A(43,41,69)           103.9463         D2E/DX2 =    0.0854             !
 ! A92   A(41,43,76)           152.6974         D2E/DX2 =    0.0636             !
 ! A93   A(45,44,46)           110.3693         D2E/DX2 =    0.037              !
 ! A94   A(45,44,47)           109.7379         D2E/DX2 =    0.0271             !
 ! A95   A(45,44,68)           108.1937         D2E/DX2 =    0.0779             !
 ! A96   A(46,44,47)           112.4361         D2E/DX2 =    0.0439             !
 ! A97   A(46,44,68)           107.8381         D2E/DX2 =    0.1119             !
 ! A98   A(47,44,68)           108.1323         D2E/DX2 =    0.0787             !
 ! A99   A(44,46,77)           149.4692         D2E/DX2 =    0.0621             !
 ! A100  A(49,48,50)           111.003          D2E/DX2 =    0.0537             !
 ! A101  A(49,48,51)           109.8981         D2E/DX2 =    0.0532             !
 ! A102  A(49,48,68)           108.7011         D2E/DX2 =    0.1335             !
 ! A103  A(50,48,51)           110.8474         D2E/DX2 =    0.0531             !
 ! A104  A(50,48,68)           107.7505         D2E/DX2 =    0.1399             !
 ! A105  A(51,48,68)           108.558          D2E/DX2 =    0.1332             !
 ! A106  A(53,52,54)           110.7188         D2E/DX2 =    0.0545             !
 ! A107  A(53,52,55)           110.8554         D2E/DX2 =    0.0532             !
 ! A108  A(53,52,68)           107.8997         D2E/DX2 =    0.1438             !
 ! A109  A(54,52,55)           110.0856         D2E/DX2 =    0.0532             !
 ! A110  A(54,52,68)           109.0236         D2E/DX2 =    0.1327             !
 ! A111  A(55,52,68)           108.177          D2E/DX2 =    0.1333             !
 ! A112  A(57,56,58)           110.3478         D2E/DX2 =    0.0364             !
 ! A113  A(57,56,59)           109.7233         D2E/DX2 =    0.027              !
 ! A114  A(57,56,69)           108.1862         D2E/DX2 =    0.0771             !
 ! A115  A(58,56,59)           112.4387         D2E/DX2 =    0.0429             !
 ! A116  A(58,56,69)           107.8625         D2E/DX2 =    0.1063             !
 ! A117  A(59,56,69)           108.15           D2E/DX2 =    0.0778             !
 ! A118  A(56,58,72)           149.4556         D2E/DX2 =    0.058              !
 ! A119  A(61,60,62)           110.7289         D2E/DX2 =    0.0547             !
 ! A120  A(61,60,63)           110.8477         D2E/DX2 =    0.0532             !
 ! A121  A(61,60,69)           107.9025         D2E/DX2 =    0.1437             !
 ! A122  A(62,60,63)           110.07           D2E/DX2 =    0.0533             !
 ! A123  A(62,60,69)           109.033          D2E/DX2 =    0.1329             !
 ! A124  A(63,60,69)           108.1785         D2E/DX2 =    0.1338             !
 ! A125  A(65,64,66)           111.0145         D2E/DX2 =    0.0537             !
 ! A126  A(65,64,67)           109.916          D2E/DX2 =    0.0532             !
 ! A127  A(65,64,69)           108.6973         D2E/DX2 =    0.1336             !
 ! A128  A(66,64,67)           110.8414         D2E/DX2 =    0.0532             !
 ! A129  A(66,64,69)           107.7434         D2E/DX2 =    0.1404             !
 ! A130  A(67,64,69)           108.5443         D2E/DX2 =    0.1331             !
 ! A131  A(38,68,44)           107.0361         D2E/DX2 =    0.0327             !
 ! A132  A(38,68,48)           110.0433         D2E/DX2 =    0.0365             !
 ! A133  A(38,68,52)           110.981          D2E/DX2 =    0.0383             !
 ! A134  A(44,68,48)           109.0821         D2E/DX2 =    0.0343             !
 ! A135  A(44,68,52)           108.5745         D2E/DX2 =    0.0357             !
 ! A136  A(48,68,52)           111.0112         D2E/DX2 =    0.0355             !
 ! A137  A(41,69,56)           107.0456         D2E/DX2 =    0.0325             !
 ! A138  A(41,69,60)           110.9734         D2E/DX2 =    0.0376             !
 ! A139  A(41,69,64)           110.0622         D2E/DX2 =    0.0362             !
 ! A140  A(56,69,60)           108.5501         D2E/DX2 =    0.0356             !
 ! A141  A(56,69,64)           109.0881         D2E/DX2 =    0.0341             !
 ! A142  A(60,69,64)           111.0088         D2E/DX2 =    0.0357             !
 ! A143  A(71,70,72)           129.3686         D2E/DX2 =    0.1363             !
 ! A144  A(71,70,73)           114.4083         D2E/DX2 =    0.1963             !
 ! A145  A(72,70,73)           116.1886         D2E/DX2 =    0.201              !
 ! A146  A(40,71,70)           121.9126         D2E/DX2 =    0.0382             !
 ! A147  A(58,72,70)           107.5384         D2E/DX2 =    0.046              !
 ! A148  A(70,73,74)           105.1426         D2E/DX2 =    0.176              !
 ! A149  A(76,75,77)           129.388          D2E/DX2 =    0.1366             !
 ! A150  A(76,75,78)           114.4113         D2E/DX2 =    0.1963             !
 ! A151  A(77,75,78)           116.1661         D2E/DX2 =    0.201              !
 ! A152  A(43,76,75)           121.8606         D2E/DX2 =    0.0365             !
 ! A153  A(46,77,75)           107.9773         D2E/DX2 =    0.0428             !
 ! A154  A(75,78,79)           105.1406         D2E/DX2 =    0.1762             !
 ! D1    D(3,1,2,6)            179.8577         D2E/DX2 =    0.0139             !
 ! D2    D(3,1,2,7)            -62.4285         D2E/DX2 =    0.0127             !
 ! D3    D(3,1,2,18)            55.5667         D2E/DX2 =    0.014              !
 ! D4    D(4,1,2,6)            -59.9002         D2E/DX2 =    0.0137             !
 ! D5    D(4,1,2,7)             57.8136         D2E/DX2 =    0.0129             !
 ! D6    D(4,1,2,18)           175.8088         D2E/DX2 =    0.0142             !
 ! D7    D(5,1,2,6)             59.4898         D2E/DX2 =    0.0138             !
 ! D8    D(5,1,2,7)            177.2037         D2E/DX2 =    0.0125             !
 ! D9    D(5,1,2,18)           -64.8011         D2E/DX2 =    0.0143             !
 ! D10   D(1,2,6,8)            175.6979         D2E/DX2 =    0.0197             !
 ! D11   D(1,2,6,81)            52.3158         D2E/DX2 =    0.0167             !
 ! D12   D(1,2,6,82)           -63.0735         D2E/DX2 =    0.0168             !
 ! D13   D(7,2,6,8)             57.8356         D2E/DX2 =    0.0143             !
 ! D14   D(7,2,6,81)           -65.5465         D2E/DX2 =    0.0137             !
 ! D15   D(7,2,6,82)           179.0641         D2E/DX2 =    0.014              !
 ! D16   D(18,2,6,8)           -58.6474         D2E/DX2 =    0.0174             !
 ! D17   D(18,2,6,81)          177.9705         D2E/DX2 =    0.0176             !
 ! D18   D(18,2,6,82)           62.5812         D2E/DX2 =    0.0174             !
 ! D19   D(1,2,18,19)           55.4153         D2E/DX2 =    0.0141             !
 ! D20   D(1,2,18,20)         -129.5901         D2E/DX2 =    0.014              !
 ! D21   D(6,2,18,19)          -69.3908         D2E/DX2 =    0.0165             !
 ! D22   D(6,2,18,20)          105.6038         D2E/DX2 =    0.0157             !
 ! D23   D(7,2,18,19)          173.8317         D2E/DX2 =    0.0105             !
 ! D24   D(7,2,18,20)          -11.1736         D2E/DX2 =    0.0097             !
 ! D25   D(2,6,8,9)            -69.2326         D2E/DX2 =    0.0147             !
 ! D26   D(2,6,8,10)            46.1738         D2E/DX2 =    0.017              !
 ! D27   D(2,6,8,11)           166.862          D2E/DX2 =    0.0166             !
 ! D28   D(81,6,8,9)            53.333          D2E/DX2 =    0.0153             !
 ! D29   D(81,6,8,10)          168.7394         D2E/DX2 =    0.0161             !
 ! D30   D(81,6,8,11)          -70.5724         D2E/DX2 =    0.015              !
 ! D31   D(82,6,8,9)           170.0327         D2E/DX2 =    0.0152             !
 ! D32   D(82,6,8,10)          -74.5608         D2E/DX2 =    0.0165             !
 ! D33   D(82,6,8,11)           46.1274         D2E/DX2 =    0.0164             !
 ! D34   D(6,8,11,12)         -167.6404         D2E/DX2 =    0.0167             !
 ! D35   D(6,8,11,80)           69.8349         D2E/DX2 =    0.015              !
 ! D36   D(6,8,11,83)          -46.4911         D2E/DX2 =    0.0165             !
 ! D37   D(9,8,11,12)           68.4833         D2E/DX2 =    0.0145             !
 ! D38   D(9,8,11,80)          -54.0414         D2E/DX2 =    0.0153             !
 ! D39   D(9,8,11,83)         -170.3673         D2E/DX2 =    0.0152             !
 ! D40   D(10,8,11,12)         -46.8774         D2E/DX2 =    0.0168             !
 ! D41   D(10,8,11,80)        -169.4021         D2E/DX2 =    0.0158             !
 ! D42   D(10,8,11,83)          74.272          D2E/DX2 =    0.0164             !
 ! D43   D(8,11,12,13)         -62.422          D2E/DX2 =    0.0143             !
 ! D44   D(8,11,12,14)         179.531          D2E/DX2 =    0.0185             !
 ! D45   D(8,11,12,28)          54.6156         D2E/DX2 =    0.0181             !
 ! D46   D(80,11,12,13)         61.0674         D2E/DX2 =    0.0135             !
 ! D47   D(80,11,12,14)        -56.9796         D2E/DX2 =    0.0159             !
 ! D48   D(80,11,12,28)        178.105          D2E/DX2 =    0.0172             !
 ! D49   D(83,11,12,13)        176.2278         D2E/DX2 =    0.0137             !
 ! D50   D(83,11,12,14)         58.1808         D2E/DX2 =    0.0159             !
 ! D51   D(83,11,12,28)        -66.7346         D2E/DX2 =    0.0171             !
 ! D52   D(11,12,14,15)        177.9765         D2E/DX2 =    0.0144             !
 ! D53   D(11,12,14,16)        -62.0618         D2E/DX2 =    0.0143             !
 ! D54   D(11,12,14,17)         57.5586         D2E/DX2 =    0.0142             !
 ! D55   D(13,12,14,15)         60.1212         D2E/DX2 =    0.0128             !
 ! D56   D(13,12,14,16)       -179.917          D2E/DX2 =    0.0125             !
 ! D57   D(13,12,14,17)        -60.2966         D2E/DX2 =    0.013              !
 ! D58   D(28,12,14,15)        -57.425          D2E/DX2 =    0.0145             !
 ! D59   D(28,12,14,16)         62.5367         D2E/DX2 =    0.0147             !
 ! D60   D(28,12,14,17)       -177.8429         D2E/DX2 =    0.0146             !
 ! D61   D(11,12,28,29)         57.1824         D2E/DX2 =    0.0161             !
 ! D62   D(11,12,28,30)       -119.3141         D2E/DX2 =    0.0153             !
 ! D63   D(13,12,28,29)        174.5385         D2E/DX2 =    0.011              !
 ! D64   D(13,12,28,30)         -1.958          D2E/DX2 =    0.0099             !
 ! D65   D(14,12,28,29)        -67.4117         D2E/DX2 =    0.0148             !
 ! D66   D(14,12,28,30)        116.0918         D2E/DX2 =    0.014              !
 ! D67   D(2,18,19,21)         175.1517         D2E/DX2 =    0.0103             !
 ! D68   D(2,18,19,22)          -3.1021         D2E/DX2 =    0.0085             !
 ! D69   D(20,18,19,21)          0.032          D2E/DX2 =    0.0082             !
 ! D70   D(20,18,19,22)       -178.2218         D2E/DX2 =    0.0072             !
 ! D71   D(2,18,20,23)        -174.7269         D2E/DX2 =    0.0106             !
 ! D72   D(2,18,20,24)           2.9754         D2E/DX2 =    0.0087             !
 ! D73   D(19,18,20,23)          0.4254         D2E/DX2 =    0.0082             !
 ! D74   D(19,18,20,24)        178.1277         D2E/DX2 =    0.0073             !
 ! D75   D(18,19,21,25)          0.2731         D2E/DX2 =    0.0092             !
 ! D76   D(18,19,21,26)       -177.5029         D2E/DX2 =    0.0093             !
 ! D77   D(22,19,21,25)        178.542          D2E/DX2 =    0.0091             !
 ! D78   D(22,19,21,26)          0.7661         D2E/DX2 =    0.0094             !
 ! D79   D(18,20,23,25)         -1.1896         D2E/DX2 =    0.0093             !
 ! D80   D(18,20,23,27)        176.7735         D2E/DX2 =    0.0097             !
 ! D81   D(24,20,23,25)       -178.8903         D2E/DX2 =    0.0093             !
 ! D82   D(24,20,23,27)         -0.9273         D2E/DX2 =    0.0097             !
 ! D83   D(19,21,25,23)         -1.0122         D2E/DX2 =    0.0084             !
 ! D84   D(19,21,25,41)       -176.7894         D2E/DX2 =    0.0098             !
 ! D85   D(26,21,25,23)        176.778          D2E/DX2 =    0.0075             !
 ! D86   D(26,21,25,41)          1.0009         D2E/DX2 =    0.0084             !
 ! D87   D(20,23,25,21)          1.4609         D2E/DX2 =    0.0085             !
 ! D88   D(20,23,25,41)        177.2822         D2E/DX2 =    0.01               !
 ! D89   D(27,23,25,21)       -176.527          D2E/DX2 =    0.008              !
 ! D90   D(27,23,25,41)         -0.7057         D2E/DX2 =    0.0089             !
 ! D91   D(21,25,41,42)         26.2941         D2E/DX2 =    0.0122             !
 ! D92   D(21,25,41,43)        149.4117         D2E/DX2 =    0.0181             !
 ! D93   D(21,25,41,69)        -93.8545         D2E/DX2 =    0.0216             !
 ! D94   D(23,25,41,42)       -149.4281         D2E/DX2 =    0.0134             !
 ! D95   D(23,25,41,43)        -26.3105         D2E/DX2 =    0.0172             !
 ! D96   D(23,25,41,69)         90.4233         D2E/DX2 =    0.0232             !
 ! D97   D(12,28,29,31)       -175.985          D2E/DX2 =    0.01               !
 ! D98   D(12,28,29,32)          1.8437         D2E/DX2 =    0.0084             !
 ! D99   D(30,28,29,31)          0.6125         D2E/DX2 =    0.008              !
 ! D100  D(30,28,29,32)        178.4411         D2E/DX2 =    0.0072             !
 ! D101  D(12,28,30,33)        176.4353         D2E/DX2 =    0.0104             !
 ! D102  D(12,28,30,34)         -1.6526         D2E/DX2 =    0.0085             !
 ! D103  D(29,28,30,33)         -0.1566         D2E/DX2 =    0.0082             !
 ! D104  D(29,28,30,34)       -178.2445         D2E/DX2 =    0.0071             !
 ! D105  D(28,29,31,35)         -1.2329         D2E/DX2 =    0.0092             !
 ! D106  D(28,29,31,36)        176.7902         D2E/DX2 =    0.0097             !
 ! D107  D(32,29,31,35)       -179.0808         D2E/DX2 =    0.0092             !
 ! D108  D(32,29,31,36)         -1.0577         D2E/DX2 =    0.0098             !
 ! D109  D(28,30,33,35)          0.32           D2E/DX2 =    0.0094             !
 ! D110  D(28,30,33,37)       -177.2691         D2E/DX2 =    0.0093             !
 ! D111  D(34,30,33,35)        178.4067         D2E/DX2 =    0.009              !
 ! D112  D(34,30,33,37)          0.8175         D2E/DX2 =    0.0093             !
 ! D113  D(29,31,35,33)          1.3611         D2E/DX2 =    0.0085             !
 ! D114  D(29,31,35,38)        177.1984         D2E/DX2 =    0.0101             !
 ! D115  D(36,31,35,33)       -176.6882         D2E/DX2 =    0.008              !
 ! D116  D(36,31,35,38)         -0.8509         D2E/DX2 =    0.0089             !
 ! D117  D(30,33,35,31)         -0.9102         D2E/DX2 =    0.0083             !
 ! D118  D(30,33,35,38)       -176.6918         D2E/DX2 =    0.0096             !
 ! D119  D(37,33,35,31)        176.6918         D2E/DX2 =    0.0076             !
 ! D120  D(37,33,35,38)          0.9103         D2E/DX2 =    0.0085             !
 ! D121  D(31,35,38,39)       -148.8279         D2E/DX2 =    0.0138             !
 ! D122  D(31,35,38,40)        -25.7097         D2E/DX2 =    0.0169             !
 ! D123  D(31,35,38,68)         90.9297         D2E/DX2 =    0.0242             !
 ! D124  D(33,35,38,39)         26.9051         D2E/DX2 =    0.0124             !
 ! D125  D(33,35,38,40)        150.0233         D2E/DX2 =    0.017              !
 ! D126  D(33,35,38,68)        -93.3373         D2E/DX2 =    0.0222             !
 ! D127  D(35,38,40,71)         73.956          D2E/DX2 =    0.0293             !
 ! D128  D(39,38,40,71)       -162.637          D2E/DX2 =    0.0208             !
 ! D129  D(68,38,40,71)        -49.616          D2E/DX2 =    0.0303             !
 ! D130  D(35,38,68,44)       -173.2744         D2E/DX2 =    0.0176             !
 ! D131  D(35,38,68,48)         68.3167         D2E/DX2 =    0.0176             !
 ! D132  D(35,38,68,52)        -54.9593         D2E/DX2 =    0.0167             !
 ! D133  D(39,38,68,44)         63.317          D2E/DX2 =    0.0161             !
 ! D134  D(39,38,68,48)        -55.0919         D2E/DX2 =    0.0148             !
 ! D135  D(39,38,68,52)       -178.3679         D2E/DX2 =    0.016              !
 ! D136  D(40,38,68,44)        -53.5235         D2E/DX2 =    0.016              !
 ! D137  D(40,38,68,48)       -171.9324         D2E/DX2 =    0.0169             !
 ! D138  D(40,38,68,52)         64.7916         D2E/DX2 =    0.0168             !
 ! D139  D(38,40,71,70)        130.3481         D2E/DX2 =    0.0316             !
 ! D140  D(25,41,43,76)         75.0786         D2E/DX2 =    0.0295             !
 ! D141  D(42,41,43,76)       -161.6081         D2E/DX2 =    0.0202             !
 ! D142  D(69,41,43,76)        -48.57           D2E/DX2 =    0.0294             !
 ! D143  D(25,41,69,56)       -173.958          D2E/DX2 =    0.0172             !
 ! D144  D(25,41,69,60)        -55.6708         D2E/DX2 =    0.0167             !
 ! D145  D(25,41,69,64)         67.6102         D2E/DX2 =    0.0175             !
 ! D146  D(42,41,69,56)         62.7851         D2E/DX2 =    0.0159             !
 ! D147  D(42,41,69,60)       -178.9278         D2E/DX2 =    0.0161             !
 ! D148  D(42,41,69,64)        -55.6468         D2E/DX2 =    0.0149             !
 ! D149  D(43,41,69,56)        -54.1019         D2E/DX2 =    0.0156             !
 ! D150  D(43,41,69,60)         64.1853         D2E/DX2 =    0.0168             !
 ! D151  D(43,41,69,64)       -172.5338         D2E/DX2 =    0.017              !
 ! D152  D(41,43,76,75)        129.0386         D2E/DX2 =    0.0332             !
 ! D153  D(45,44,46,77)        108.3703         D2E/DX2 =    0.0307             !
 ! D154  D(47,44,46,77)       -128.738          D2E/DX2 =    0.03               !
 ! D155  D(68,44,46,77)         -9.6223         D2E/DX2 =    0.0229             !
 ! D156  D(45,44,68,38)       -177.9341         D2E/DX2 =    0.0162             !
 ! D157  D(45,44,68,48)        -58.9019         D2E/DX2 =    0.0158             !
 ! D158  D(45,44,68,52)         62.1955         D2E/DX2 =    0.0171             !
 ! D159  D(46,44,68,38)        -58.5506         D2E/DX2 =    0.0163             !
 ! D160  D(46,44,68,48)         60.4816         D2E/DX2 =    0.0184             !
 ! D161  D(46,44,68,52)       -178.4211         D2E/DX2 =    0.0202             !
 ! D162  D(47,44,68,38)         63.2697         D2E/DX2 =    0.018              !
 ! D163  D(47,44,68,48)       -177.6981         D2E/DX2 =    0.017              !
 ! D164  D(47,44,68,52)        -56.6007         D2E/DX2 =    0.0167             !
 ! D165  D(44,46,77,75)        113.4552         D2E/DX2 =    0.0371             !
 ! D166  D(49,48,68,38)        -62.1949         D2E/DX2 =    0.0158             !
 ! D167  D(49,48,68,44)       -179.3371         D2E/DX2 =    0.0158             !
 ! D168  D(49,48,68,52)         61.0635         D2E/DX2 =    0.0158             !
 ! D169  D(50,48,68,38)         58.1808         D2E/DX2 =    0.0165             !
 ! D170  D(50,48,68,44)        -58.9614         D2E/DX2 =    0.0167             !
 ! D171  D(50,48,68,52)       -178.5608         D2E/DX2 =    0.0168             !
 ! D172  D(51,48,68,38)        178.2889         D2E/DX2 =    0.0153             !
 ! D173  D(51,48,68,44)         61.1467         D2E/DX2 =    0.0152             !
 ! D174  D(51,48,68,52)        -58.4527         D2E/DX2 =    0.0156             !
 ! D175  D(53,52,68,38)        -54.8237         D2E/DX2 =    0.017              !
 ! D176  D(53,52,68,44)         62.5562         D2E/DX2 =    0.0164             !
 ! D177  D(53,52,68,48)       -177.5415         D2E/DX2 =    0.0165             !
 ! D178  D(54,52,68,38)         65.4823         D2E/DX2 =    0.0154             !
 ! D179  D(54,52,68,44)       -177.1379         D2E/DX2 =    0.0158             !
 ! D180  D(54,52,68,48)        -57.2356         D2E/DX2 =    0.0153             !
 ! D181  D(55,52,68,38)       -174.8116         D2E/DX2 =    0.0153             !
 ! D182  D(55,52,68,44)        -57.4318         D2E/DX2 =    0.0151             !
 ! D183  D(55,52,68,48)         62.4705         D2E/DX2 =    0.015              !
 ! D184  D(57,56,58,72)        108.1504         D2E/DX2 =    0.0303             !
 ! D185  D(59,56,58,72)       -128.9906         D2E/DX2 =    0.0297             !
 ! D186  D(69,56,58,72)         -9.8355         D2E/DX2 =    0.0224             !
 ! D187  D(57,56,69,41)       -178.1759         D2E/DX2 =    0.0159             !
 ! D188  D(57,56,69,60)         61.9707         D2E/DX2 =    0.0171             !
 ! D189  D(57,56,69,64)        -59.1125         D2E/DX2 =    0.0158             !
 ! D190  D(58,56,69,41)        -58.8085         D2E/DX2 =    0.0154             !
 ! D191  D(58,56,69,60)       -178.6619         D2E/DX2 =    0.0202             !
 ! D192  D(58,56,69,64)         60.2549         D2E/DX2 =    0.0186             !
 ! D193  D(59,56,69,41)         63.0397         D2E/DX2 =    0.0176             !
 ! D194  D(59,56,69,60)        -56.8137         D2E/DX2 =    0.0165             !
 ! D195  D(59,56,69,64)       -177.897          D2E/DX2 =    0.017              !
 ! D196  D(56,58,72,70)        113.8383         D2E/DX2 =    0.0368             !
 ! D197  D(61,60,69,41)        -54.7962         D2E/DX2 =    0.017              !
 ! D198  D(61,60,69,56)         62.5759         D2E/DX2 =    0.0164             !
 ! D199  D(61,60,69,64)       -177.5314         D2E/DX2 =    0.0164             !
 ! D200  D(62,60,69,41)         65.5289         D2E/DX2 =    0.0154             !
 ! D201  D(62,60,69,56)       -177.0989         D2E/DX2 =    0.0158             !
 ! D202  D(62,60,69,64)        -57.2062         D2E/DX2 =    0.0152             !
 ! D203  D(63,60,69,41)       -174.7775         D2E/DX2 =    0.0153             !
 ! D204  D(63,60,69,56)        -57.4053         D2E/DX2 =    0.0151             !
 ! D205  D(63,60,69,64)         62.4873         D2E/DX2 =    0.0149             !
 ! D206  D(65,64,69,41)        -62.1825         D2E/DX2 =    0.0156             !
 ! D207  D(65,64,69,56)       -179.3506         D2E/DX2 =    0.0157             !
 ! D208  D(65,64,69,60)         61.0777         D2E/DX2 =    0.0158             !
 ! D209  D(66,64,69,41)         58.2007         D2E/DX2 =    0.0163             !
 ! D210  D(66,64,69,56)        -58.9674         D2E/DX2 =    0.0167             !
 ! D211  D(66,64,69,60)       -178.539          D2E/DX2 =    0.0168             !
 ! D212  D(67,64,69,41)        178.2898         D2E/DX2 =    0.0152             !
 ! D213  D(67,64,69,56)         61.1218         D2E/DX2 =    0.0151             !
 ! D214  D(67,64,69,60)        -58.4499         D2E/DX2 =    0.0156             !
 ! D215  D(72,70,71,40)         79.1694         D2E/DX2 =    0.0215             !
 ! D216  D(73,70,71,40)        -98.5851         D2E/DX2 =    0.0203             !
 ! D217  D(71,70,72,58)        -80.4222         D2E/DX2 =    0.0214             !
 ! D218  D(73,70,72,58)         97.2991         D2E/DX2 =    0.021              !
 ! D219  D(71,70,73,74)       -178.5903         D2E/DX2 =    0.0208             !
 ! D220  D(72,70,73,74)          3.344          D2E/DX2 =    0.0186             !
 ! D221  D(77,75,76,43)         79.2106         D2E/DX2 =    0.0211             !
 ! D222  D(78,75,76,43)        -98.541          D2E/DX2 =    0.0199             !
 ! D223  D(76,75,77,46)        -80.5795         D2E/DX2 =    0.0207             !
 ! D224  D(78,75,77,46)         97.1393         D2E/DX2 =    0.0208             !
 ! D225  D(76,75,78,79)       -178.5558         D2E/DX2 =    0.0207             !
 ! D226  D(77,75,78,79)          3.3802         D2E/DX2 =    0.0185             !
 --------------------------------------------------------------------------------
 Trust Radius=3.00D-01 FncErr=1.00D-07 GrdErr=1.00D-06 EigMax=2.50D+02 EigMin=1.00D-04
 Number of steps in this run=    476 maximum allowed number of steps=    498.
 GradGradGradGradGradGradGradGradGradGradGradGradGradGradGradGradGradGrad

 Leave Link  103 at Sun Mar 10 14:44:04 2024, MaxMem=  2013265920 cpu:               1.1 elap:               0.1
 (Enter /packages/apps/gaussian/g16/g16/l202.exe)
 Stoichiometry    C29H46N2O6
 Framework group  C1[X(C29H46N2O6)]
 Deg. of freedom   243
 Full point group                 C1      NOp   1
 Largest Abelian subgroup         C1      NOp   1
 Largest concise Abelian subgroup C1      NOp   1
                         Standard orientation:                         
 ---------------------------------------------------------------------
 Center     Atomic      Atomic             Coordinates (Angstroms)
 Number     Number       Type             X           Y           Z
 ---------------------------------------------------------------------
      1          6           0        4.956224   -3.782143    0.215801
      2          6           0        4.406326   -2.496376   -0.402719
      3          1           0        4.463659   -4.661521   -0.199367
      4          1           0        6.026975   -3.868558    0.026454
      5          1           0        4.811680   -3.796182    1.297374
      6          6           0        5.099965   -1.255248    0.186700
      7          1           0        4.625109   -2.519778   -1.474147
      8          6           0        4.658558    0.045683   -0.474406
      9          1           0        5.035340    0.086145   -1.501425
     10          1           0        3.571352    0.039346   -0.552231
     11          6           0        5.074894    1.303250    0.279637
     12          6           0        4.372461    2.572913   -0.229531
     13          1           0        4.668029    2.720457   -1.272224
     14          6           0        4.814871    3.803137    0.565708
     15          1           0        4.344906    4.709269    0.183021
     16          1           0        4.543083    3.704263    1.618283
     17          1           0        5.897228    3.928920    0.510568
     18          6           0        2.901832   -2.374995   -0.256894
     19          6           0        2.288980   -2.447486    0.992490
     20          6           0        2.104637   -2.084219   -1.360005
     21          6           0        0.926739   -2.237097    1.132497
     22          1           0        2.884080   -2.643130    1.875443
     23          6           0        0.743254   -1.863393   -1.226384
     24          1           0        2.564112   -1.992666   -2.336410
     25          6           0        0.136031   -1.953035    0.022773
     26          1           0        0.473764   -2.257321    2.116202
     27          1           0        0.145095   -1.586935   -2.086392
     28          6           0        2.865074    2.407184   -0.211134
     29          6           0        2.195110    2.088412    0.969500
     30          6           0        2.120289    2.497123   -1.381777
     31          6           0        0.831807    1.855097    0.977952
     32          1           0        2.750128    1.985902    1.893382
     33          6           0        0.750403    2.273516   -1.379425
     34          1           0        2.622778    2.715211   -2.316079
     35          6           0        0.089799    1.959536   -0.197933
     36          1           0        0.331623    1.557638    1.891886
     37          1           0        0.194747    2.304705   -2.308620
     38          6           0       -1.374406    1.643202   -0.187917
     39          1           0       -1.700640    1.238498   -1.144397
     40          1           0       -1.589573    0.951109    0.620064
     41          6           0       -1.324264   -1.653622    0.170228
     42          1           0       -1.547015   -1.244659    1.154231
     43          1           0       -1.635802   -0.970852   -0.614223
     44          6           0       -3.678155    2.285011    0.222220
     45          1           0       -4.355636    3.120627    0.384499
     46          1           0       -3.925333    1.771508   -0.704826
     47          1           0       -3.700984    1.621539    1.082703
     48          6           0       -2.250459    3.782037   -1.049152
     49          1           0       -1.237810    4.163274   -1.147293
     50          1           0       -2.553262    3.242840   -1.945902
     51          1           0       -2.935575    4.600637   -0.839761
     52          6           0       -1.922350    3.500587    1.364666
     53          1           0       -1.926318    2.748763    2.154122
     54          1           0       -0.935700    3.941394    1.258954
     55          1           0       -2.658350    4.275913    1.564655
     56          6           0       -3.651541   -2.327080    0.037436
     57          1           0       -4.331914   -3.171852   -0.046380
     58          1           0       -3.795798   -1.817949    0.988284
     59          1           0       -3.784400   -1.663387   -0.812824
     60          6           0       -2.027839   -3.522204   -1.303925
     61          1           0       -2.135405   -2.772557   -2.088143
     62          1           0       -1.030095   -3.950312   -1.315760
     63          1           0       -2.772200   -4.307395   -1.414339
     64          6           0       -2.062945   -3.801629    1.132136
     65          1           0       -1.040749   -4.169116    1.109664
     66          1           0       -2.264548   -3.264103    2.057895
     67          1           0       -2.757214   -4.629558    1.006270
     68          7           0       -2.292050    2.827132    0.089658
     69          7           0       -2.252292   -2.850260    0.005339
     70          6           0       -2.836323   -0.114299    3.026093
     71          8           0       -1.842578    0.505753    2.612898
     72          8           0       -3.074025   -1.337213    2.995397
     73          8           0       -3.834541    0.690692    3.557759
     74          1           0       -4.516689    0.082974    3.851742
     75          6           0       -3.179631    0.073694   -2.843910
     76          8           0       -2.132270   -0.528349   -2.555970
     77          8           0       -3.434530    1.292022   -2.780484
     78          8           0       -4.220172   -0.748994   -3.254091
     79          1           0       -4.943548   -0.153504   -3.461902
     80          1           0        6.156980    1.448531    0.219657
     81          1           0        6.183430   -1.378880    0.104429
     82          1           0        4.874998   -1.210210    1.257327
     83          1           0        4.844728    1.176246    1.342126
 ---------------------------------------------------------------------
 Rotational constants (GHZ):           0.1220380           0.0803332           0.0661293
 Leave Link  202 at Sun Mar 10 14:44:04 2024, MaxMem=  2013265920 cpu:               1.3 elap:               0.2
 (Enter /packages/apps/gaussian/g16/g16/l301.exe)
 Standard basis: 6-311+G(2d,2p) (5D, 7F)
 Ernie: Thresh=  0.10000D-02 Tol=  0.10000D-05 Strict=F.
 There are  1487 symmetry adapted cartesian basis functions of A   symmetry.
 There are  1413 symmetry adapted basis functions of A   symmetry.
  1413 basis functions,  2060 primitive gaussians,  1487 cartesian basis functions
   141 alpha electrons      141 beta electrons
       nuclear repulsion energy      4624.5888259189 Hartrees.
 IExCor= 4639 DFT=T Ex+Corr=wB97XD ExCW=0 ScaHFX=  1.000000
 ScaDFX=  1.000000  1.000000  1.000000  1.000000 ScalE2=  1.000000  1.000000
 IRadAn=      5 IRanWt=     -1 IRanGd=            0 ICorTp=0 IEmpDi=121
 HFx  wShort=  0.000000 wLong=  0.200000 cFull=  0.222036 cShort=  0.000000 cLong=  0.777964
 DFx  wShort=  0.000000 wLong=  0.200000 cFull=  0.000000 cShort=  0.000000 cLong=  1.000000
 NAtoms=   83 NActive=   83 NUniq=   83 SFac= 1.00D+00 NAtFMM=   60 NAOKFM=T Big=T
 Integral buffers will be    131072 words long.
 Raffenetti 2 integral format.
 Two-electron integral symmetry is turned on.
 R6Disp:  Grimme-D2 Dispersion energy=       -0.0949929322 Hartrees.
 Nuclear repulsion after empirical dispersion term =     4624.4938329867 Hartrees.
 Leave Link  301 at Sun Mar 10 14:44:05 2024, MaxMem=  2013265920 cpu:               1.4 elap:               0.2
 (Enter /packages/apps/gaussian/g16/g16/l302.exe)
 NPDir=0 NMtPBC=     1 NCelOv=     1 NCel=       1 NClECP=     1 NCelD=      1
         NCelK=      1 NCelE2=     1 NClLst=     1 CellRange=     0.0.
 One-electron integrals computed using PRISM.
 One-electron integral symmetry used in STVInt
 NBasis=  1413 RedAO= T EigKep=  1.02D-06  NBF=  1413
 NBsUse=  1404 1.00D-06 EigRej=  8.50D-07 NBFU=  1404
 Precomputing XC quadrature grid using
 IXCGrd= 4 IRadAn=           5 IRanWt=          -1 IRanGd=           0 AccXCQ= 0.00D+00.
 Generated NRdTot=       0 NPtTot=           0 NUsed=           0 NTot=          32
 NSgBfM=  1395  1376  1379  1390  1395 MxSgAt=    83 MxSgA2=    83.
 Leave Link  302 at Sun Mar 10 14:44:08 2024, MaxMem=  2013265920 cpu:              60.0 elap:               3.2
 (Enter /packages/apps/gaussian/g16/g16/l303.exe)
 DipDrv:  MaxL=1.
 Leave Link  303 at Sun Mar 10 14:44:09 2024, MaxMem=  2013265920 cpu:               4.9 elap:               0.4
 (Enter /packages/apps/gaussian/g16/g16/l401.exe)
 Initial guess from the checkpoint file:  "dry-ofreq-v2.chk"
 B after Tr=    -0.000000   -0.000000   -0.000000
         Rot=    1.000000    0.000000    0.000000    0.000000 Ang=   0.00 deg.
 Guess basis will be translated and rotated to current coordinates.
 JPrj=2 DoOrth=T DoCkMO=T.
 Leave Link  401 at Sun Mar 10 14:44:14 2024, MaxMem=  2013265920 cpu:              87.6 elap:               4.6
 (Enter /packages/apps/gaussian/g16/g16/l502.exe)
 Integral symmetry usage will be decided dynamically.
 Closed shell SCF:
 Using DIIS extrapolation, IDIIS=  1040.
 NGot=  2013265920 LenX=  2008800273 LenY=  2006587617
 Requested convergence on RMS density matrix=1.00D-08 within 128 cycles.
 Requested convergence on MAX density matrix=1.00D-06.
 Requested convergence on             energy=1.00D-06.
 No special actions if energy rises.
 Fock matrices will be formed incrementally for  20 cycles.

 Cycle   1  Pass 1  IDiag  1:
 FoFJK:  IHMeth= 1 ICntrl=       0 DoSepK=T KAlg= 0 I1Cent=           0 FoldK=F
 IRaf=         1 NMat=       1 IRICut=       1 DoRegI=T DoRafI=F ISym2E= 0 IDoP0=0 IntGTp=1.
 FoFCou: FMM=T IPFlag=           0 FMFlag=      100000 FMFlg1=        2001
         NFxFlg=           0 DoJE=T BraDBF=F KetDBF=F FulRan=T
         wScrn=  0.000000 ICntrl=       500 IOpCl=  0 I1Cent=           0 NGrid=           0
         NMat0=    1 NMatS0=      1 NMatT0=    0 NMatD0=    1 NMtDS0=    0 NMtDT0=    0
 Symmetry not used in FoFCou.
 FMM levels:  10  Number of levels for PrismC:   9
 E= -1693.71883779908    
 DIIS: error= 6.96D-08 at cycle   1 NSaved=   1.
 NSaved= 1 IEnMin= 1 EnMin= -1693.71883779908     IErMin= 1 ErrMin= 6.96D-08
 ErrMax= 6.96D-08  0.00D+00 EMaxC= 1.00D-01 BMatC= 1.17D-11 BMatP= 1.17D-11
 IDIUse=1 WtCom= 1.00D+00 WtEn= 0.00D+00
 Coeff-Com:  0.100D+01
 Coeff:      0.100D+01
 Gap=     0.342 Goal=   None    Shift=    0.000
 RMSDP=4.47D-08 MaxDP=6.94D-06              OVMax= 3.37D-07

 Cycle   2  Pass 1  IDiag  1:
 RMSU=  4.47D-08    CP:  1.00D+00
 E= -1693.71883779912     Delta-E=       -0.000000000040 Rises=F Damp=F
 DIIS: error= 1.00D-08 at cycle   2 NSaved=   2.
 NSaved= 2 IEnMin= 2 EnMin= -1693.71883779912     IErMin= 2 ErrMin= 1.00D-08
 ErrMax= 1.00D-08  0.00D+00 EMaxC= 1.00D-01 BMatC= 7.16D-13 BMatP= 1.17D-11
 IDIUse=1 WtCom= 1.00D+00 WtEn= 0.00D+00
 Coeff-Com:  0.403D-01 0.960D+00
 Coeff:      0.403D-01 0.960D+00
 Gap=     0.342 Goal=   None    Shift=    0.000
 RMSDP=5.10D-09 MaxDP=5.88D-07 DE=-4.00D-11 OVMax= 2.74D-07

 SCF Done:  E(RwB97XD) =  -1693.71883780     A.U. after    2 cycles
            NFock=  2  Conv=0.51D-08     -V/T= 2.0040
 KE= 1.686962527712D+03 PE=-1.319947166373D+04 EE= 5.194296465230D+03
 Leave Link  502 at Sun Mar 10 14:47:10 2024, MaxMem=  2013265920 cpu:            3435.4 elap:             176.1
 (Enter /packages/apps/gaussian/g16/g16/l601.exe)
 Copying SCF densities to generalized density rwf, IOpCl= 0 IROHF=0.

 **********************************************************************

            Population analysis using the SCF density.

 **********************************************************************

 Orbital symmetries:
       Occupied  (A) (A) (A) (A) (A) (A) (A) (A) (A) (A) (A) (A)
                 (A) (A) (A) (A) (A) (A) (A) (A) (A) (A) (A) (A)
                 (A) (A) (A) (A) (A) (A) (A) (A) (A) (A) (A) (A)
                 (A) (A) (A) (A) (A) (A) (A) (A) (A) (A) (A) (A)
                 (A) (A) (A) (A) (A) (A) (A) (A) (A) (A) (A) (A)
                 (A) (A) (A) (A) (A) (A) (A) (A) (A) (A) (A) (A)
                 (A) (A) (A) (A) (A) (A) (A) (A) (A) (A) (A) (A)
                 (A) (A) (A) (A) (A) (A) (A) (A) (A) (A) (A) (A)
                 (A) (A) (A) (A) (A) (A) (A) (A) (A) (A) (A) (A)
                 (A) (A) (A) (A) (A) (A) (A) (A) (A) (A) (A) (A)
                 (A) (A) (A) (A) (A) (A) (A) (A) (A) (A) (A) (A)
                 (A) (A) (A) (A) (A) (A) (A) (A) (A)
       Virtual   (A) (A) (A) (A) (A) (A) (A) (A) (A) (A) (A) (A)
                 (A) (A) (A) (A) (A) (A) (A) (A) (A) (A) (A) (A)
                 (A) (A) (A) (A) (A) (A) (A) (A) (A) (A) (A) (A)
                 (A) (A) (A) (A) (A) (A) (A) (A) (A) (A) (A) (A)
                 (A) (A) (A) (A) (A) (A) (A) (A) (A) (A) (A) (A)
                 (A) (A) (A) (A) (A) (A) (A) (A) (A) (A) (A) (A)
                 (A) (A) (A) (A) (A) (A) (A) (A) (A) (A) (A) (A)
                 (A) (A) (A) (A) (A) (A) (A) (A) (A) (A) (A) (A)
                 (A) (A) (A) (A) (A) (A) (A) (A) (A) (A) (A) (A)
                 (A) (A) (A) (A) (A) (A) (A) (A) (A) (A) (A) (A)
                 (A) (A) (A) (A) (A) (A) (A) (A) (A) (A) (A) (A)
                 (A) (A) (A) (A) (A) (A) (A) (A) (A) (A) (A) (A)
                 (A) (A) (A) (A) (A) (A) (A) (A) (A) (A) (A) (A)
                 (A) (A) (A) (A) (A) (A) (A) (A) (A) (A) (A) (A)
                 (A) (A) (A) (A) (A) (A) (A) (A) (A) (A) (A) (A)
                 (A) (A) (A) (A) (A) (A) (A) (A) (A) (A) (A) (A)
                 (A) (A) (A) (A) (A) (A) (A) (A) (A) (A) (A) (A)
                 (A) (A) (A) (A) (A) (A) (A) (A) (A) (A) (A) (A)
                 (A) (A) (A) (A) (A) (A) (A) (A) (A) (A) (A) (A)
                 (A) (A) (A) (A) (A) (A) (A) (A) (A) (A) (A) (A)
                 (A) (A) (A) (A) (A) (A) (A) (A) (A) (A) (A) (A)
                 (A) (A) (A) (A) (A) (A) (A) (A) (A) (A) (A) (A)
                 (A) (A) (A) (A) (A) (A) (A) (A) (A) (A) (A) (A)
                 (A) (A) (A) (A) (A) (A) (A) (A) (A) (A) (A) (A)
                 (A) (A) (A) (A) (A) (A) (A) (A) (A) (A) (A) (A)
                 (A) (A) (A) (A) (A) (A) (A) (A) (A) (A) (A) (A)
                 (A) (A) (A) (A) (A) (A) (A) (A) (A) (A) (A) (A)
                 (A) (A) (A) (A) (A) (A) (A) (A) (A) (A) (A) (A)
                 (A) (A) (A) (A) (A) (A) (A) (A) (A) (A) (A) (A)
                 (A) (A) (A) (A) (A) (A) (A) (A) (A) (A) (A) (A)
                 (A) (A) (A) (A) (A) (A) (A) (A) (A) (A) (A) (A)
                 (A) (A) (A) (A) (A) (A) (A) (A) (A) (A) (A) (A)
                 (A) (A) (A) (A) (A) (A) (A) (A) (A) (A) (A) (A)
                 (A) (A) (A) (A) (A) (A) (A) (A) (A) (A) (A) (A)
                 (A) (A) (A) (A) (A) (A) (A) (A) (A) (A) (A) (A)
                 (A) (A) (A) (A) (A) (A) (A) (A) (A) (A) (A) (A)
                 (A) (A) (A) (A) (A) (A) (A) (A) (A) (A) (A) (A)
                 (A) (A) (A) (A) (A) (A) (A) (A) (A) (A) (A) (A)
                 (A) (A) (A) (A) (A) (A) (A) (A) (A) (A) (A) (A)
                 (A) (A) (A) (A) (A) (A) (A) (A) (A) (A) (A) (A)
                 (A) (A) (A) (A) (A) (A) (A) (A) (A) (A) (A) (A)
                 (A) (A) (A) (A) (A) (A) (A) (A) (A) (A) (A) (A)
                 (A) (A) (A) (A) (A) (A) (A) (A) (A) (A) (A) (A)
                 (A) (A) (A) (A) (A) (A) (A) (A) (A) (A) (A) (A)
                 (A) (A) (A) (A) (A) (A) (A) (A) (A) (A) (A) (A)
                 (A) (A) (A) (A) (A) (A) (A) (A) (A) (A) (A) (A)
                 (A) (A) (A) (A) (A) (A) (A) (A) (A) (A) (A) (A)
                 (A) (A) (A) (A) (A) (A) (A) (A) (A) (A) (A) (A)
                 (A) (A) (A) (A) (A) (A) (A) (A) (A) (A) (A) (A)
                 (A) (A) (A) (A) (A) (A) (A) (A) (A) (A) (A) (A)
                 (A) (A) (A) (A) (A) (A) (A) (A) (A) (A) (A) (A)
                 (A) (A) (A) (A) (A) (A) (A) (A) (A) (A) (A) (A)
                 (A) (A) (A) (A) (A) (A) (A) (A) (A) (A) (A) (A)
                 (A) (A) (A) (A) (A) (A) (A) (A) (A) (A) (A) (A)
                 (A) (A) (A) (A) (A) (A) (A) (A) (A) (A) (A) (A)
                 (A) (A) (A) (A) (A) (A) (A) (A) (A) (A) (A) (A)
                 (A) (A) (A) (A) (A) (A) (A) (A) (A) (A) (A) (A)
                 (A) (A) (A) (A) (A) (A) (A) (A) (A) (A) (A) (A)
                 (A) (A) (A) (A) (A) (A) (A) (A) (A) (A) (A) (A)
                 (A) (A) (A) (A) (A) (A) (A) (A) (A) (A) (A) (A)
                 (A) (A) (A) (A) (A) (A) (A) (A) (A) (A) (A) (A)
                 (A) (A) (A) (A) (A) (A) (A) (A) (A) (A) (A) (A)
                 (A) (A) (A) (A) (A) (A) (A) (A) (A) (A) (A) (A)
                 (A) (A) (A) (A) (A) (A) (A) (A) (A) (A) (A) (A)
                 (A) (A) (A) (A) (A) (A) (A) (A) (A) (A) (A) (A)
                 (A) (A) (A) (A) (A) (A) (A) (A) (A) (A) (A) (A)
                 (A) (A) (A) (A) (A) (A) (A) (A) (A) (A) (A) (A)
                 (A) (A) (A) (A) (A) (A) (A) (A) (A) (A) (A) (A)
                 (A) (A) (A) (A) (A) (A) (A) (A) (A) (A) (A) (A)
                 (A) (A) (A) (A) (A) (A) (A) (A) (A) (A) (A) (A)
                 (A) (A) (A) (A) (A) (A) (A) (A) (A) (A) (A) (A)
                 (A) (A) (A) (A) (A) (A) (A) (A) (A) (A) (A) (A)
                 (A) (A) (A) (A) (A) (A) (A) (A) (A) (A) (A) (A)
                 (A) (A) (A) (A) (A) (A) (A) (A) (A) (A) (A) (A)
                 (A) (A) (A) (A) (A) (A) (A) (A) (A) (A) (A) (A)
                 (A) (A) (A) (A) (A) (A) (A) (A) (A) (A) (A) (A)
                 (A) (A) (A) (A) (A) (A) (A) (A) (A) (A) (A) (A)
                 (A) (A) (A) (A) (A) (A) (A) (A) (A) (A) (A) (A)
                 (A) (A) (A) (A) (A) (A) (A) (A) (A) (A) (A) (A)
                 (A) (A) (A) (A) (A) (A) (A) (A) (A) (A) (A) (A)
                 (A) (A) (A) (A) (A) (A) (A) (A) (A) (A) (A) (A)
                 (A) (A) (A) (A) (A) (A) (A) (A) (A) (A) (A) (A)
                 (A) (A) (A) (A) (A) (A) (A) (A) (A) (A) (A) (A)
                 (A) (A) (A) (A) (A) (A) (A) (A) (A) (A) (A) (A)
                 (A) (A) (A) (A) (A) (A) (A) (A) (A) (A) (A) (A)
                 (A) (A) (A) (A) (A) (A) (A) (A) (A) (A) (A) (A)
                 (A) (A) (A) (A) (A) (A) (A) (A) (A) (A) (A) (A)
                 (A) (A) (A) (A) (A) (A) (A) (A) (A) (A) (A) (A)
                 (A) (A) (A) (A) (A) (A) (A) (A) (A) (A) (A) (A)
                 (A) (A) (A) (A) (A) (A) (A) (A) (A) (A) (A) (A)
                 (A) (A) (A) (A) (A) (A) (A) (A) (A) (A) (A) (A)
                 (A) (A) (A) (A) (A) (A) (A) (A) (A) (A) (A) (A)
                 (A) (A) (A) (A) (A) (A) (A) (A) (A) (A) (A) (A)
                 (A) (A) (A) (A) (A) (A) (A) (A) (A) (A) (A) (A)
                 (A) (A) (A) (A) (A) (A) (A) (A) (A) (A) (A) (A)
                 (A) (A) (A) (A) (A) (A) (A) (A) (A) (A) (A) (A)
                 (A) (A) (A) (A) (A) (A) (A) (A) (A) (A) (A) (A)
                 (A) (A) (A) (A) (A) (A) (A) (A) (A) (A) (A) (A)
                 (A) (A) (A) (A) (A) (A) (A) (A) (A) (A) (A) (A)
                 (A) (A) (A) (A) (A) (A) (A) (A) (A) (A) (A) (A)
                 (A) (A) (A) (A) (A) (A) (A) (A) (A) (A) (A) (A)
                 (A) (A) (A) (A) (A) (A) (A) (A) (A) (A) (A) (A)
                 (A) (A) (A) (A) (A) (A) (A) (A) (A) (A) (A) (A)
                 (A) (A) (A) (A) (A) (A) (A) (A) (A) (A) (A) (A)
                 (A) (A) (A) (A) (A) (A) (A) (A) (A) (A) (A) (A)
                 (A) (A) (A)
 The electronic state is 1-A.
 Alpha  occ. eigenvalues --  -19.23893 -19.23869 -19.17007 -19.17004 -19.16982
 Alpha  occ. eigenvalues --  -19.16975 -14.56320 -14.56315 -10.38983 -10.38955
 Alpha  occ. eigenvalues --  -10.33099 -10.33075 -10.32825 -10.32816 -10.32291
 Alpha  occ. eigenvalues --  -10.32288 -10.31709 -10.31705 -10.29557 -10.29555
 Alpha  occ. eigenvalues --  -10.29554 -10.29551 -10.29314 -10.29305 -10.28908
 Alpha  occ. eigenvalues --  -10.28896 -10.28597 -10.28558 -10.28489 -10.28477
 Alpha  occ. eigenvalues --  -10.28414 -10.28400 -10.27811 -10.27784 -10.27292
 Alpha  occ. eigenvalues --  -10.27277 -10.26987  -1.16952  -1.16922  -1.12529
 Alpha  occ. eigenvalues --   -1.12515  -1.06444  -1.06416  -1.03527  -1.03497
 Alpha  occ. eigenvalues --   -0.97478  -0.97262  -0.93029  -0.91646  -0.88185
 Alpha  occ. eigenvalues --   -0.86655  -0.85591  -0.85558  -0.84960  -0.84846
 Alpha  occ. eigenvalues --   -0.84729  -0.84715  -0.84376  -0.80708  -0.80605
 Alpha  occ. eigenvalues --   -0.77904  -0.73819  -0.73085  -0.71416  -0.71068
 Alpha  occ. eigenvalues --   -0.70864  -0.69196  -0.68620  -0.66034  -0.65637
 Alpha  occ. eigenvalues --   -0.64989  -0.64877  -0.62278  -0.61773  -0.61743
 Alpha  occ. eigenvalues --   -0.61558  -0.61360  -0.60962  -0.59219  -0.58257
 Alpha  occ. eigenvalues --   -0.56831  -0.56210  -0.55464  -0.54517  -0.54444
 Alpha  occ. eigenvalues --   -0.54114  -0.53775  -0.53219  -0.53067  -0.52771
 Alpha  occ. eigenvalues --   -0.52675  -0.52085  -0.51958  -0.51743  -0.51596
[...]
 000356,0.00001096,-0.00001959,-0.00000804,0.00000430,-0.00000786,0.000
 00939,0.00000624,-0.00000159,0.00000235,0.00000010,-0.00001115,0.00001
 417,0.00000143,-0.00000040,0.00000267,-0.00000293,-0.00000344,0.000005
 79,0.00000331,-0.00008302,-0.00006319,0.00004088,0.00000285,0.00001129
 ,0.00000949,0.00001676,0.00001551,-0.00001414,-0.00000293,-0.00000069,
 -0.00000109,0.00000106,-0.00000246,-0.00000019,-0.00000206,0.00000198,
 0.00000090,-0.00000199,0.00000144,0.00000125,0.00000036,0.00000175,-0.
 00000533,-0.00000123,0.00000286,0.00000045,-0.00000032,0.00000245,0.00
 000009,0.00000230,-0.00000150,-0.00000044,0.00000264,0.00000008,0.0000
 0439,-0.00000132,0.00000411,0.00000043,-0.00000146,0.00000318,0.000001
 03,0.00000298,-0.00000144,0.00000026,-0.00001583,0.00001571,0.00000160
 ,0.00000687,0.00000058,0.00000015,-0.00000050,0.00000009,0.00000351,-0
 .00000105,-0.00000026,-0.00000244,0.00000273,0.00000508,-0.00001007,-0
 .00000601,0.00000208,-0.00000434,-0.00000191,-0.00001464,-0.00000199,0
 .00000842,0.00000224,-0.00000115,-0.00000022,0.00000073,0.00000881,-0.
 00000604,-0.00001290,-0.00000013,-0.00000561,0.00000070,0.00000427,0.0
 0000708,0.00000345,0.00000101,0.00000358,-0.00000911,0.00000017,0.0000
 3874,0.00001688,0.00000044,-0.00005231,0.00002796,0.00003240,0.0000315
 2,-0.00001380,-0.00002208,0.00002005,-0.00001734,-0.00002419,0.0000316
 1,-0.00002226,-0.00002086,-0.00000410,0.00000214,0.00000552,-0.0000697
 1,0.00004377,-0.00002075,0.00005201,-0.00003539,0.00003478,0.00002112,
 -0.00003362,0.00000487,0.00002522,0.00000349,0.00001238,-0.00000331,0.
 00000025,-0.00000294,-0.00003364,0.00002612,0.00014190,-0.00675589,0.0
 0175780,0.03191293,0.06346761,0.00034288,0.00161399,-0.00117337,0.0051
 1513,-0.00391821,-0.02756462,-0.00011530,0.00026507,0.00038096,-0.0000
 1787,-0.00005188,0.00002417,-0.00006682,-0.00035345,0.00077210,0.00303
 029,-0.04658741,-0.01064347,-0.00270721,-0.00417009,-0.00196974,-0.007
 14329,-0.00173694,0.02854892,0.00205536,-0.00474955,0.00254519,0.00007
 039,0.00075210,-0.00057236,-0.00057933,0.00153367,0.00225214,0.0001323
 2,0.00000110,0.00003070,-0.00001448,0.00012274,-0.00024970,-0.00000371
 ,0.00003912,-0.00008927,0.00000586,0.00002803,0.00000415,0.00000168,-0
 .00004577,-0.00003227,0.00000280,-0.00000465,0.00000761,0.00133348,0.0
 0068986,0.00064899,0.00002040,0.00010464,-0.00054457,-0.00048683,0.000
 31518,-0.00022111,-0.00035525,0.00010376,0.00016406,-0.00035883,-0.000
 33307,0.00032153,0.00037345,-0.00003305,-0.00015409,0.00005942,-0.0001
 1568,0.00008916,0.00007490,-0.00007838,0.00037411,-0.00003174,0.000002
 93,-0.00000907,-0.00000411,-0.00001404,-0.00000644,0.00001812,0.000035
 71,-0.00000851,-0.00000017,0.00003230,0.00010555,-0.00001852,-0.000042
 30,0.00001639,0.00002872,0.00002501,-0.00003158,0.00000515,-0.00004100
 ,-0.00006094,-0.00004373,-0.00001479,-0.00002726,-0.00001079,0.0000366
 6,-0.00002609,-0.00000048,0.00000099,-0.00001961,0.00000811,0.00000130
 ,0.00000042,-0.00000454,0.00000149,-0.00000084,0.00000270,0.00000181,-
 0.00001004,-0.00000263,0.00000191,0.00000144,0.00000182,0.00000208,0.0
 0000096,-0.00000037,-0.00004023,0.00004257,-0.00000004,0.00000267,0.00
 000034,0.00001110,0.00000299,-0.00000563,0.00000211,0.00000116,-0.0000
 0119,-0.00000041,-0.00000034,0.00000024,0.00000008,0.00000019,0.000000
 88,0.00000063,0.00000035,-0.00000008,0.00000002,-0.00000096,0.00000092
 ,-0.00000003,-0.00000093,0.00000081,-0.00000008,0.00000044,0.00000060,
 -0.00000032,0.00000007,0.00000024,0.00000191,0.00000125,0.00000105,0.0
 0000186,0.00000101,-0.00000047,0.00000057,-0.00000190,0.00000135,-0.00
 000079,0.00000011,-0.00000033,-0.00000188,0.00000103,0.00000184,0.0000
 0021,0.00000018,-0.00000061,-0.00000011,0.00000122,0.00000080,0.000000
 61,0.00000025,-0.00000034,0.00000274,0.00000044,-0.00000126,0.00000041
 ,0.00000009,-0.00000055,0.00000238,-0.00000197,-0.00000203,0.00000157,
 -0.00000054,-0.00000089,-0.00000376,0.00000083,-0.00000109,-0.00000171
 ,0.00000040,-0.00000264,-0.00000124,0.00000129,0.00000091,-0.00000027,
 0.00000062,-0.00000100,-0.00000527,-0.00000118,-0.00000030,-0.00000442
 ,0.00000175,-0.00000002,0.00001571,0.00002337,-0.00000528,-0.00001611,
 -0.00001344,0.00000215,-0.00000315,-0.00001747,0.00000026,-0.00000266,
 -0.00000291,0.00000059,-0.00000052,0.00000061,0.00000027,-0.00000188,0
 .00000568,0.00000074,0.00000023,-0.00000288,0.00000286,0.00000056,-0.0
 0000331,-0.00000392,-0.00000010,-0.00000145,0.00000014,-0.00000047,0.0
 0000023,0.00000018,-0.00003169,-0.00004099,-0.00011915,0.00056765,-0.0
 0073640,-0.00341993,-0.00144275,0.05803882,-0.00004108,0.00065630,0.00
 066534,0.00209504,-0.00180444,-0.01533526,-0.00011765,0.00000479,0.000
 36794,-0.00008240,0.00003417,0.00001379,0.00022449,-0.00069353,0.00050
 993,0.05373029,-0.01002915,-0.28690781,-0.00145416,-0.00215428,0.00010
 961,0.00373128,0.00062307,-0.01579708,-0.00162641,0.00239966,-0.000395
 18,-0.00017589,-0.00004054,0.00016669,0.00003675,-0.00166057,0.0006429
 1,-0.00018855,-0.00006516,0.00053284,0.00009690,-0.00029855,0.00009809
 ,-0.00005974,0.00007032,-0.00000572,0.00000832,0.00002564,0.00000800,-
 0.00001005,0.00002891,0.00001548,-0.00000213,-0.00000725,-0.00001119,0
 .00143259,-0.00002128,0.00050734,0.00015321,0.00052057,-0.00014714,-0.
 00056687,0.00019615,-0.00034405,-0.00048770,0.00025464,0.00014474,0.00
 008435,-0.00020720,0.00034053,0.00050465,-0.00002017,-0.00009021,0.000
 03416,-0.00003793,0.00017002,-0.00003540,-0.00014511,0.00044624,-0.000
 04083,0.00003941,-0.00000046,-0.00001389,-0.00001599,-0.00000857,0.000
 03220,0.00002794,-0.00003054,-0.00004813,0.00001141,-0.00009547,-0.000
 00652,0.00004920,0.00000110,-0.00000620,-0.00002140,0.00002850,0.00000
 055,0.00006179,0.00004295,0.00004016,0.00001205,0.00002693,0.00000280,
 -0.00003909,0.00003004,-0.00001953,-0.00001199,0.00000482,-0.00001786,
 0.00000783,0.00000174,0.00000370,-0.00000298,-0.00000059,0.00001617,-0
 .00000130,0.00000778,-0.00000042,0.00000186,-0.00000224,-0.00000589,0.
 00000529,-0.00000752,0.00000951,-0.00004594,0.00005272,-0.00000931,0.0
 0000330,-0.00000517,0.00001086,0.00000908,-0.00001108,0.00000255,0.000
 00417,0.00000040,-0.00000108,-0.00000119,-0.00000050,0.00000018,-0.000
 00016,-0.00000225,-0.00000129,0.00000140,-0.00000190,0.00000229,0.0000
 0367,-0.00000318,-0.00000005,-0.00000174,-0.00000146,0.00000121,0.0000
 0004,-0.00000043,-0.00000058,-0.00000022,0.00000024,-0.00000124,-0.000
 00103,-0.00000418,-0.00000129,0.00000449,-0.00000332,-0.00000013,-0.00
 000027,-0.00000169,0.00000014,-0.00000010,0.00000021,-0.00000589,0.000
 00217,0.00000269,0.00000078,0.00000124,-0.00000086,-0.00000206,-0.0000
 0072,-0.00000320,0.00000056,0.00000067,-0.00000242,0.00000486,0.000002
 82,-0.00000549,-0.00000174,0.00000290,-0.00000374,0.00000249,-0.000007
 30,-0.00000293,0.00000509,-0.00000012,-0.00000231,-0.00000636,0.000008
 25,-0.00000482,-0.00000355,-0.00000773,-0.00000614,-0.00000558,-0.0000
 0004,0.00000031,0.00000458,0.00000041,0.00000094,-0.00000993,-0.000000
 81,0.00000554,-0.00000665,-0.00000129,0.00000536,-0.00002708,0.0000145
 6,0.00000857,0.00002391,-0.00001342,0.00001778,0.00001442,-0.00000879,
 0.00000638,0.00001632,-0.00001125,-0.00000323,-0.00000358,0.00000154,-
 0.00000207,-0.00000993,0.00001412,-0.00000649,0.00000522,-0.00001423,0
 .00002667,0.00000088,-0.00000976,0.00000792,0.00000157,-0.00000163,0.0
 0000693,0.00000098,0.00000039,-0.00000335,-0.00004054,0.00001836,0.000
 00919,0.00083954,-0.00010288,-0.00252800,-0.05813900,0.01157510,0.3158
 4197,0.00000658,0.00004041,0.00005365,-0.00006196,0.00012757,-0.000208
 85,-0.00001158,0.00000592,-0.00001637,-0.00000953,0.00000746,0.0000069
 3,0.00001795,0.00000239,-0.00000515,0.00032227,0.00046235,0.00022840,-
 0.00003301,-0.00003367,0.00001012,0.00225749,0.00074792,-0.00934429,0.
 00033203,-0.00131683,-0.00124493,0.00019828,0.00054153,-0.00017936,-0.
 06220588,-0.00763470,0.05548559,0.00282695,0.00330601,-0.01574955,-0.0
 0085798,0.00266226,-0.00148515,0.00033737,-0.00103139,0.00008921,-0.00
 014815,-0.00015688,-0.00008790,0.00023982,-0.00010330,0.00028741,-0.00
 002625,0.00007132,0.00019570,0.00003635,0.00000612,-0.00001625,0.00001
 991,0.00003988,0.00004203,-0.00002121,0.00001103,-0.00002137,-0.000026
 10,0.00001996,0.00000311,0.00000812,-0.00001390,-0.00000373,0.00000398
 ,0.00000432,-0.00000037,0.00000524,-0.00000147,0.00000796,-0.00001754,
 0.00000864,0.00000761,-0.00000341,-0.00000917,0.00000311,-0.00000272,-
 0.00000572,-0.00000302,0.00098507,-0.00061129,-0.00044469,-0.00061822,
 0.00042914,-0.00045861,-0.00031353,-0.00014570,-0.00024475,-0.00023641
 ,-0.00017134,0.00000530,-0.00114564,0.00070965,0.00044288,0.00029618,0
 .00005182,-0.00002059,0.00000919,0.00001288,0.00012538,0.00004493,-0.0
 0005705,0.00026686,-0.00001705,0.00002637,0.00000867,0.00001547,0.0000
 0649,0.00000523,-0.00007130,0.00004991,0.00006083,0.00001409,-0.000013
 68,-0.00001340,0.00000396,-0.00001173,0.00000706,-0.00000890,-0.000011
 88,0.00000046,-0.00000347,-0.00000543,0.00000182,-0.00000258,-0.000006
 08,-0.00000247,-0.00001661,-0.00001421,0.00000257,0.00000611,-0.000000
 77,-0.00000111,-0.00000095,-0.00000021,-0.00000349,-0.00000104,-0.0000
 0035,0.00000211,-0.00000065,0.00000005,-0.00000946,-0.00000229,0.00001
 385,0.00000021,-0.00000452,-0.00000147,-0.00000337,0.00000753,-0.00000
 196,-0.00000246,-0.00000052,-0.00000332,0.00000606,-0.00000798,-0.0000
 0199,0.00000580,-0.00000571,0.00001513,0.00000085,0.00000904,-0.000003
 06,0.00000089,-0.00000173,-0.00000074,0.00000076,0.00000092,0.00000262
 ,0.00000051,-0.00000187,-0.00000238,-0.00000068,-0.00000191,-0.0000019
 4,-0.00000083,0.00000234,0.00000088,-0.00000418,-0.00000129,-0.0000040
 9,0.00000029,-0.00000107,-0.00000239,-0.00000029,0.00000222,0.00000121
 ,0.00000012,0.00000184,-0.00000188,0.00000447,-0.00000135,-0.00000256,
 0.00000047,-0.00000018,-0.00000345,-0.00000017,0.00000222,0.00000172,0
 .00000055,0.00003152,-0.00001282,-0.00000595,0.00000175,0.00000987,0.0
 0000042,-0.00008918,-0.00006123,0.00004227,0.00007056,0.00004738,-0.00
 004625,0.00002541,0.00004627,-0.00001104,0.00003161,-0.00000562,-0.000
 02165,-0.00000211,0.,0.00000418,-0.00004359,-0.00003331,-0.00002058,0.
 00002300,0.00001727,0.00001611,0.00001919,0.00002031,0.00002002,0.0000
 2851,0.00002200,0.00001199,-0.00000436,-0.00000298,-0.00000338,-0.0071
 4359,-0.00414836,0.03183084,-0.00003024,-0.00003162,0.00013135,0.00020
 040,0.00019233,0.00010862,0.06475977,0.00001558,0.00003902,0.00009046,
 -0.00013789,-0.00001200,-0.00008953,-0.00000821,0.00002999,-0.00000352
 ,-0.00000454,-0.00000129,-0.00000604,0.00000436,-0.00004730,0.00002637
 ,0.00056033,0.00157795,-0.00222377,0.00002048,0.00006938,0.00026320,0.
 00709405,0.00034532,-0.02756067,-0.00183438,-0.00443609,-0.00286002,-0
 .00005686,0.00075287,0.00064287,-0.00714255,-0.04963870,0.02904131,-0.
 00609467,-0.00626619,0.02787429,0.00296843,-0.00441278,0.00170072,-0.0
 0049602,0.00158072,0.00130984,0.00009653,0.00033150,-0.00033734,0.0002
 2883,-0.00036606,-0.00081568,-0.00004475,-0.00004902,-0.00003367,-0.00
 003060,0.00003584,0.00002599,0.00002163,0.00005826,-0.00003916,0.00001
 233,-0.00002653,-0.00006868,-0.00004839,0.00002006,0.00002496,-0.00000
 185,-0.00003910,0.00003201,0.00004278,-0.00002450,0.00001723,0.0000178
 5,0.00002937,0.00004337,0.00000220,-0.00000344,0.00002838,-0.00000558,
 -0.00000198,0.,0.00000367,-0.00000049,-0.00000050,-0.00115859,0.000697
 85,-0.00069512,0.00004409,-0.00013192,0.00041174,0.00039561,0.00019737
 ,0.00033421,0.00025224,0.00016227,-0.00016139,0.00060750,-0.00000730,-
 0.00037527,-0.00029286,-0.00002024,0.00003830,-0.00006473,-0.00005791,
 -0.00016556,-0.00003070,0.00005650,-0.00028294,0.00003220,0.00000413,0
 .00000919,0.00000771,-0.00002503,0.00000367,-0.00001528,-0.00002112,-0
 .00005237,-0.00000962,-0.00000229,0.00000373,0.00000346,-0.00000186,0.
 00000199,-0.00000806,-0.00000408,0.00000940,-0.00000180,0.00000144,0.0
 0000154,0.00000192,0.00000121,-0.00000178,-0.00000162,-0.00000367,-0.0
 0000207,0.00000164,0.00000032,0.00000055,-0.00000063,-0.00000002,-0.00
 000012,0.00000076,-0.00000015,0.00000058,-0.00000277,-0.00000105,-0.00
 000133,-0.00000116,0.00000035,0.00000271,-0.00000145,-0.00000050,-0.00
 000027,0.00000053,-0.00000085,0.00000055,0.00000576,0.00000049,0.00000
 458,0.00000045,0.00000170,0.00000070,0.00000146,0.00000144,0.00000321,
 0.00000177,0.00000013,0.00000080,-0.00000198,0.00000164,0.00000088,0.0
 0000067,0.00000018,-0.00000019,0.00000012,0.00000024,0.00000057,-0.000
 00008,-0.00000036,-0.00000034,0.00000055,0.00000030,-0.00000174,-0.000
 00010,0.00000001,-0.00000046,-0.00000012,-0.00000099,-0.00000113,0.000
 00072,0.00000019,-0.00000012,-0.00000092,0.00000110,0.00000020,-0.0000
 0059,-0.00000140,-0.00000074,-0.00000118,0.00000070,0.00000060,0.00000
 077,0.00000037,0.00000023,0.00001572,-0.00000251,-0.00000182,0.0000053
 0,0.00000116,0.00000056,-0.00000580,0.00001029,0.00000474,0.00000155,-
 0.00000593,-0.00000619,0.00000314,-0.00000766,-0.00000239,0.00000527,-
 0.00000466,-0.00000493,-0.00000104,0.00000056,0.00000116,-0.00000424,-
 0.00000367,-0.00000157,0.00000113,0.00000030,0.00000358,0.00000228,0.0
 0000252,-0.00000081,0.00000309,0.00000198,0.00000164,-0.00000094,-0.00
 000024,-0.00000037,-0.00076758,-0.00104156,0.00397198,0.00002899,-0.00
 004391,0.00011789,-0.00017708,-0.00064131,0.00080884,0.00594175,0.0613
 4055,-0.00005033,-0.00005986,0.00000846,-0.00018702,0.00000981,0.00051
 766,0.00000902,-0.00002146,0.00000098,-0.00000398,0.00000797,-0.000009
 53,-0.00000583,-0.00003381,0.00001559,0.00002708,0.00172067,0.00059077
 ,0.00010175,0.00029624,0.00014293,0.00439033,0.00053772,-0.01799596,-0
 .00171700,-0.00276169,-0.00077373,-0.00017425,0.00010321,0.00024055,0.
 05445761,0.02846458,-0.28397434,0.00202962,0.00251099,-0.01310422,-0.0
 0139409,0.00178011,0.00033921,-0.00004078,-0.00079770,0.00085408,-0.00
 014326,-0.00007410,0.00034667,0.00015753,0.00065514,0.00056788,-0.0000
 7456,0.00003135,-0.00001735,0.00002171,-0.00002332,-0.00003004,0.00000
 311,0.00002484,-0.00004601,-0.00001712,-0.00004068,-0.00007197,-0.0000
 4348,0.00002969,0.00002394,0.00000601,-0.00005502,0.00002423,0.0000557
 4,-0.00002726,0.00001717,0.00000988,0.00003544,0.00005711,-0.00002091,
 0.00001045,0.00002872,-0.00001566,-0.00001165,0.00000473,0.00000612,-0
 .00000027,-0.00000186,0.00130810,0.00027387,0.00017919,0.00029840,-0.0
 0046942,-0.00062308,-0.00039657,-0.00000071,-0.00026406,-0.00024612,-0
 .00026387,0.00031166,0.00025449,-0.00001667,0.00079199,0.00033442,-0.0
 0002460,0.00002250,0.00000233,-0.00002161,0.00017741,-0.00000740,0.000
 05393,0.00026547,-0.00004046,-0.00005261,-0.00001705,-0.00001372,0.000
 00544,0.00000102,0.00002902,0.00001687,0.00007848,0.00001445,-0.000006
 54,-0.00000918,-0.00001299,-0.00000378,-0.00001014,0.00001313,-0.00000
 415,0.00000855,-0.00000616,-0.00000732,-0.00000691,-0.00000101,-0.0000
 0259,-0.00000423,-0.00000449,0.00000015,0.00000390,0.,-0.00000111,-0.0
 0000130,0.00000095,-0.00000162,-0.00000516,-0.00000156,-0.00000010,-0.
 00000164,0.00000305,0.00000168,-0.00000366,0.00000042,0.00000562,-0.00
 000214,-0.00000101,-0.00000203,-0.00000250,0.00000291,0.00000053,-0.00
 000204,-0.00000681,-0.00000671,-0.00000950,-0.00000854,-0.00000010,0.0
 0000044,-0.00000474,0.00001022,-0.00000568,0.00000448,-0.00000077,0.00
 000148,0.00000201,-0.00000279,0.00000133,-0.00000081,0.00000140,-0.000
 00032,-0.00000213,-0.00000229,-0.00000566,-0.00000013,-0.00000036,-0.0
 0000132,0.00000333,-0.00000291,-0.00000517,0.00000220,-0.00000041,-0.0
 0000075,0.00000046,0.00000225,-0.00000174,-0.00000065,0.00000037,0.000
 00057,-0.00000054,0.00000153,-0.00000287,-0.00000022,0.00000017,-0.000
 00187,-0.00000038,-0.00000387,-0.00000290,0.00000045,0.00000016,0.0000
 0030,-0.00000970,0.00000755,0.00000736,-0.00000920,0.00000191,0.000005
 46,-0.00005584,-0.00005270,0.00001691,0.00005742,0.00003169,0.00000471
 ,0.00001852,0.00004000,0.00001097,0.00001758,0.00000169,-0.00000316,-0
 .00000263,-0.00000060,-0.00000278,0.00000549,-0.00002608,-0.00000615,-
 0.00001163,0.00001358,0.00001600,-0.00000085,0.00001828,0.00001780,0.0
 0000275,0.00000707,0.00000621,0.00000011,-0.00000093,-0.00000391,0.000
 86246,0.00018642,-0.00214410,-0.00004162,-0.00001110,0.00002708,0.0001
 1283,-0.00094169,0.00091209,-0.05985110,-0.03106170,0.31252644\\-0.000
 00010,-0.00000008,0.00000087,0.00000003,0.00000002,0.00000077,-0.00000
 002,-0.00000005,0.00000083,-0.00000005,-0.00000008,0.00000111,-0.00000
 026,-0.00000003,0.00000090,-0.00000007,-0.00000006,0.00000087,0.000000
 23,-0.00000007,0.00000090,0.00000009,-0.00000008,0.00000076,0.00000029
 ,-0.00000009,0.00000090,0.00000015,0.00000006,0.00000069,-0.00000010,-
 0.00000008,0.00000074,0.00000007,-0.00000005,0.00000073,0.00000027,-0.
 00000008,0.00000072,-0.00000002,-0.00000007,0.00000072,0.00000002,0.,0
 .00000064,-0.00000024,-0.00000002,0.00000076,-0.00000003,-0.00000005,0
 .00000094,0.00000002,0.00000002,0.00000051,-0.00000014,0.00000004,0.00
 000049,0.00000028,-0.00000018,0.00000028,-0.00000020,-0.00000003,0.000
 00025,-0.00000036,0.00000002,0.00000052,0.00000023,-0.00000016,0.00000
 012,0.00000036,-0.00000007,0.00000050,0.,0.00000021,-0.00000015,-0.000
 00044,0.00000004,0.00000014,0.00000032,-0.00000002,-0.00000004,0.,0.00
 000009,0.00000034,-0.00000028,0.00000005,0.00000017,0.00000029,-0.0000
 0008,0.00000024,-0.00000022,-0.00000004,-0.00000003,-0.00000028,-0.000
 00005,0.00000051,0.00000030,-0.00000012,0.00000014,0.00000043,-0.00000
 009,0.00000047,0.00000021,0.00000002,-0.00000018,-0.00000034,0.0000000
 7,0.00000005,0.00000053,-0.00000006,0.00000003,0.00000015,-0.00000010,
 -0.00000064,0.00000011,0.00000004,-0.00000026,-0.00000007,0.,-0.000000
 09,-0.00000011,-0.00000005,-0.00000026,-0.00000019,-0.00000008,-0.0000
 0031,0.00000020,0.00000022,-0.00000037,-0.00000012,-0.00000003,-0.0000
 0072,0.,0.00000006,-0.00000091,0.00000018,0.00000002,-0.00000092,-0.00
 000020,0.00000019,-0.00000070,0.00000023,0.00000002,-0.00000065,0.0000
 0019,0.,-0.00000031,0.00000047,0.00000002,-0.00000044,0.00000023,0.,-0
 .00000065,-0.00000013,0.,-0.00000044,-0.00000033,-0.00000004,-0.000000
 36,-0.00000021,0.,-0.00000030,-0.00000024,0.00000008,-0.00000055,0.000
 00004,-0.00000003,-0.00000059,-0.00000007,0.00000006,-0.00000082,-0.00
 000017,-0.00000006,-0.00000073,0.00000005,-0.00000004,-0.00000059,0.00
 000024,-0.00000006,-0.00000033,0.00000024,0.,-0.00000047,0.00000015,-0
 .00000003,-0.00000017,0.00000024,-0.00000002,-0.00000044,-0.00000027,0
 .00000008,-0.00000041,-0.00000022,0.00000007,-0.00000017,-0.00000050,0
 .00000023,-0.00000030,-0.00000024,0.00000004,-0.00000045,0.00000003,0.
 00000023,-0.00000037,-0.00000006,0.00000001,-0.00000044,-0.00000053,-0
 .00000004,-0.00000052,-0.00000043,0.00000028,-0.00000062,-0.00000050,0
 .00000006,-0.00000060,-0.00000065,0.00000021,-0.00000079,-0.00000070,0
 .00000012,-0.00000086,0.00000107,-0.00000029,-0.00000061,0.00000043,0.
 00000049,-0.00000035,0.,-0.00000005,-0.00000069,0.00000056,-0.00000026
 ,-0.00000079,0.00000068,0.00000003,-0.00000092,0.,-0.00000008,0.000001
 03,-0.00000005,-0.00000007,0.00000107,-0.00000022,-0.00000001,0.000000
 87,-0.00000023,-0.00000009,0.00000081\\\@


 FROM WHENCE IT HAPPENS, THAT THEY WHICH TRUST TO BOOKS, DO AS THEY THAT CAST UP MANY LITTLE SUMMS INTO GREATER,
 WITHOUT CONSIDERING WETHER THOSE LITTLE SUMMES WERE RIGHTLY CAST UP OR NOT...
 AND AT LAST FINDING THE ERROUR VISIBLE, AND NOT MISTRUSTING THEIR FIRST GROUNDS,
 KNOW NOT WHICH WAY TO CLEERE THEMSELVES...
 BUT SPEND TIME IN FLUTTERING OVER THEIR BOOKES....
 AS BIRDS THAT ENTERING BY THE CHIMNEY, AND FINDING THEMSELVES INCLOSED IN A CHAMBER,
 FLUTTER AT THE FALSE LIGHT OF A GLASSE WINDOW,
 FOR WANT OF WIT TO CONSIDER WHICH WAY THEY CAME IN....
           LEVIATHAN
 Job cpu time:      17 days 14 hours 11 minutes 58.6 seconds.
 Elapsed time:       0 days 21 hours 43 minutes 58.2 seconds.
 File lengths (MBytes):  RWF=  27386 Int=      0 D2E=      0 Chk=    154 Scr=      1
 Normal termination of Gaussian 16 at Mon Mar 11 13:01:49 2024.
