 Entering Gaussian System, Link 0=g16
 Input=2water-v2.gjf
 Output=2water-v2.log
 Initial command:
 /packages/apps/gaussian/g16/g16/l1.exe "/scratch/mdturne9/2-5-methyl/geo/Gau-98022.inp" -scrdir="/scratch/mdturne9/2-5-methyl/geo/"
 Entering Link 1 = /packages/apps/gaussian/g16/g16/l1.exe PID=     98023.
  
 Copyright (c) 1988,1990,1992,1993,1995,1998,2003,2009,2016,
            Gaussian, Inc.  All Rights Reserved.
  
 This is part of the Gaussian(R) 16 program.  It is based on
 the Gaussian(R) 09 system (copyright 2009, Gaussian, Inc.),
 the Gaussian(R) 03 system (copyright 2003, Gaussian, Inc.),
 the Gaussian(R) 98 system (copyright 1998, Gaussian, Inc.),
 the Gaussian(R) 94 system (copyright 1995, Gaussian, Inc.),
 the Gaussian 92(TM) system (copyright 1992, Gaussian, Inc.),
 the Gaussian 90(TM) system (copyright 1990, Gaussian, Inc.),
 the Gaussian 88(TM) system (copyright 1988, Gaussian, Inc.),
 the Gaussian 86(TM) system (copyright 1986, Carnegie Mellon
 University), and the Gaussian 82(TM) system (copyright 1983,
 Carnegie Mellon University). Gaussian is a federally registered
 trademark of Gaussian, Inc.
  
 This software contains proprietary and confidential information,
 including trade secrets, belonging to Gaussian, Inc.
  
 This software is provided under written license and may be
 used, copied, transmitted, or stored only in accord with that
 written license.
  
 The following legend is applicable only to US Government
 contracts under FAR:
  
                    RESTRICTED RIGHTS LEGEND
  
 Use, reproduction and disclosure by the US Government is
 subject to restrictions as set forth in subparagraphs (a)
 and (c) of the Commercial Computer Software - Restricted
 Rights clause in FAR 52.227-19.
  
 Gaussian, Inc.
 340 Quinnipiac St., Bldg. 40, Wallingford CT 06492
  
  
 ---------------------------------------------------------------
 Warning -- This program may not be used in any manner that
 competes with the business of Gaussian, Inc. or will provide
 assistance to any competitor of Gaussian, Inc.  The licensee
 of this program is prohibited from giving any competitor of
 Gaussian, Inc. access to this program.  By using this program,
 the user acknowledges that Gaussian, Inc. is engaged in the
 business of creating and licensing software in the field of
 computational chemistry and represents and warrants to the
 licensee that it is not a competitor of Gaussian, Inc. and that
 it will not use this program in any manner prohibited above.
 ---------------------------------------------------------------
  

 Cite this work as:
 Gaussian 16, Revision A.03,
 M. J. Frisch, G. W. Trucks, H. B. Schlegel, G. E. Scuseria, 
 M. A. Robb, J. R. Cheeseman, G. Scalmani, V. Barone, 
 G. A. Petersson, H. Nakatsuji, X. Li, M. Caricato, A. V. Marenich, 
 J. Bloino, B. G. Janesko, R. Gomperts, B. Mennucci, H. P. Hratchian, 
 J. V. Ortiz, A. F. Izmaylov, J. L. Sonnenberg, D. Williams-Young, 
 F. Ding, F. Lipparini, F. Egidi, J. Goings, B. Peng, A. Petrone, 
 T. Henderson, D. Ranasinghe, V. G. Zakrzewski, J. Gao, N. Rega, 
 G. Zheng, W. Liang, M. Hada, M. Ehara, K. Toyota, R. Fukuda, 
 J. Hasegawa, M. Ishida, T. Nakajima, Y. Honda, O. Kitao, H. Nakai, 
 T. Vreven, K. Throssell, J. A. Montgomery, Jr., J. E. Peralta, 
 F. Ogliaro, M. J. Bearpark, J. J. Heyd, E. N. Brothers, K. N. Kudin, 
 V. N. Staroverov, T. A. Keith, R. Kobayashi, J. Normand, 
 K. Raghavachari, A. P. Rendell, J. C. Burant, S. S. Iyengar, 
 J. Tomasi, M. Cossi, J. M. Millam, M. Klene, C. Adamo, R. Cammi, 
 J. W. Ochterski, R. L. Martin, K. Morokuma, O. Farkas, 
 J. B. Foresman, and D. J. Fox, Gaussian, Inc., Wallingford CT, 2016.
 
 ******************************************
 Gaussian 16:  ES64L-G16RevA.03 25-Dec-2016
                30-Mar-2024 
 ******************************************
 %oldchk=2water.chk
 %nprocshared=40
 Will use up to   40 processors via shared memory.
 %mem=13GB
 %chk=2water-v2.chk
 Copying data from "2water.chk" to current chk file "2water-v2.chk"
 IOpt=  2 FromEx=T IUOpen= 4 IOptOp= 5 NList=   0 IFRang= 0 IUIn= 4 IUOut= 2.
 ----------------------------------------------
 #p opt=readfc wb97xd/6-311+g(2d,2p) guess=read
 ----------------------------------------------
 1/10=3,18=20,19=15,26=3,38=1/1,3;
 2/9=110,12=2,17=6,18=5,40=1/2;
 3/5=4,6=6,7=212,11=2,25=1,30=1,71=1,74=-58,116=-2/1,2,3;
 4/5=1/1;
 5/5=2,38=6/2;
 6/7=2,8=2,9=2,10=2,28=1/1;
 7//1,2,3,16;
 1/18=20,19=15,26=3/3(2);
 2/9=110/2;
 99//99;
 2/9=110/2;
 3/5=4,6=6,7=212,11=2,25=1,30=1,71=1,74=-58/1,2,3;
 4/5=5,16=3,69=1/1;
 5/5=2,38=5/2;
 7//1,2,3,16;
 1/18=20,19=15,26=3/3(-5);
 2/9=110/2;
 6/7=2,8=2,9=2,10=2,19=2,28=1/1;
 99/9=1/99;
 Leave Link    1 at Sat Mar 30 11:37:56 2024, MaxMem=  1744830464 cpu:              52.0 elap:               1.4
 (Enter /packages/apps/gaussian/g16/g16/l101.exe)
 --------
 Required
 --------
 Symbolic Z-matrix:
 Charge =  0 Multiplicity = 1
 C                    0     2.95619  -4.2824    2.14377  H 
 C                    0     2.84617  -3.54711   0.80725  H 
 H                    0     2.22487  -5.08886   2.21334  H 
 H                    0     3.95249  -4.71408   2.25551  H 
 H                    0     2.79535  -3.60971   2.98636  H 
 C                    0     3.83608  -2.37006   0.7397   H 
 H                    0     3.11202  -4.25899   0.02031  H 
 C                    0     4.0422   -1.83173  -0.67589  H 
 H                    0     4.82879  -2.40894  -1.1713   H 
 H                    0     3.13925  -1.99186  -1.26806  H 
 C                    0     4.4055   -0.34436  -0.74488  H 
 C                    0     4.73173   0.06204  -2.1907   H 
 C                    0     5.20833   1.50258  -2.33819  H 
 H                    0     5.47078   1.72231  -3.37313  H 
 H                    0     4.43629   2.20844  -2.03037  H 
 H                    0     6.0916    1.68737  -1.72267  H 
 C                    0     1.43825  -3.058     0.52273  H 
 C                    0     0.73125  -2.31332   1.46728  H 
 C                    0     0.84553  -3.26527  -0.71888  H 
 C                    0    -0.52514  -1.80586   1.1837   H 
 H                    0     1.176    -2.09955   2.43077  H 
 C                    0    -0.40612  -2.74356  -1.01347  H 
 H                    0     1.38028  -3.82701  -1.47544  H 
 C                    0    -1.11647  -2.02258  -0.05806  H 
 H                    0    -1.0448   -1.19758   1.9139   H 
 H                    0    -0.822    -2.88117  -2.00438  H 
 C                    0     3.31173   0.53185  -0.16333  H 
 C                    0     3.61068   1.51432   0.77512  H 
 C                    0     1.98226   0.38774  -0.56212  H 
 C                    0     2.61635   2.33438   1.29275  H 
 H                    0     4.63406   1.63882   1.10771  H 
 C                    0     0.98142   1.18584  -0.03831  H 
 H                    0     1.70782  -0.37513  -1.27932  H 
 C                    0     1.29595   2.18162   0.88926  H 
 H                    0     2.87243   3.08335   2.03388  H 
 H                    0    -0.05284   1.05229  -0.34195  H 
 C                    0     0.19216   3.01645   1.46001  H 
 H                    0    -0.71179   2.42881   1.53099  H 
 H                    0     0.46505   3.44198   2.42725  H 
 C                    0    -2.45401  -1.41283  -0.34788  H 
 H                    0    -2.65546  -0.62303   0.36419  H 
 H                    0    -2.52698  -1.01922  -1.35967  H 
 C                    0    -1.57751   4.62936   1.05816  H 
 H                    0    -1.88452   5.50737   0.49491  H 
 H                    0    -2.24566   3.78404   0.88523  H 
 H                    0    -1.52982   4.86204   2.11968  H 
 C                    0    -0.29408   3.87685  -0.85951  H 
 H                    0     0.71088   3.67146  -1.21848  H 
 H                    0    -0.94684   3.00685  -1.02515  H 
 H                    0    -0.69648   4.74993  -1.36873  H 
 C                    0     0.74916   5.32387   0.78621  H 
 H                    0     0.7453    5.63254   1.82949  H 
 H                    0     1.73942   4.97543   0.50462  H 
 H                    0     0.45708   6.1585    0.15271  H 
 C                    0    -4.86412  -1.58319  -0.58524  H 
 H                    0    -5.74054  -2.18293  -0.3491   H 
 H                    0    -4.86087  -0.62059  -0.07585  H 
 H                    0    -4.78383  -1.3873   -1.65098  H 
 C                    0    -3.53378  -3.56455  -1.00878  H 
 H                    0    -3.40498  -3.25935  -2.0436   H 
 H                    0    -2.68134  -4.15389  -0.6807   H 
 H                    0    -4.449    -4.14398  -0.90423  H 
 C                    0    -3.76789  -2.72231   1.26996  H 
 H                    0    -2.88001  -3.27467   1.56474  H 
 H                    0    -3.8543   -1.79895   1.85096  H 
 H                    0    -4.65161  -3.3454    1.38997  H 
 N                    0    -0.21676   4.21658   0.60031  H 
 N                    0    -3.64624  -2.34856  -0.1663   H 
 H                    0     4.79828  -2.68396   1.15202  H 
 H                    0     3.46364  -1.57809   1.39609  H 
 H                    0     3.84316  -0.09668  -2.80817  H 
 H                    0     5.49892  -0.61576  -2.5729   H 
 H                    0     5.30723  -0.18249  -0.14393  H 
 C                    0    -2.82677   1.53236  -0.51519  H 
 O                    0    -2.13491   1.59861  -1.5917   H 
 O                    0    -4.08531   1.36629  -0.49573  H 
 O                    0    -2.16765   1.59129   0.62274  H 
 O                    0    -3.75985   0.13551  -3.14616  L 
 H                    0    -3.02376   0.67601  -2.76844  L 
 H                    0    -4.46997   0.52141  -2.62336  L 
 O                    0    -3.7041    0.39335   2.30013  L 
 H                    0    -4.52845   0.69685   1.90731  L 
 H                    0    -3.03984   0.88395   1.72283  L 
 
 Add virtual bond connecting atoms H83        and O77        Dist= 2.97D+00.
 Add virtual bond connecting atoms H79        and O75        Dist= 3.29D+00.
 Add virtual bond connecting atoms O75        and H49        Dist= 3.64D+00.
 Add virtual bond connecting atoms O77        and H38        Dist= 3.61D+00.
 Add virtual bond connecting atoms H83        and H41        Dist= 3.90D+00.
 ITRead=  0  0  0  0  0  0  0  0  0  0  0  0  0  0  0  0  0  0  0  0
 ITRead=  0  0  0  0  0  0  0  0  0  0  0  0  0  0  0  0  0  0  0  0
 ITRead=  0  0  0  0  0  0  0  0  0  0  0  0  0  0  0  0  0  0  0  0
 ITRead=  0  0  0  0  0  0  0  0  0  0  0  0  0  0  0  0  0  0  0  0
 ITRead=  0  0  0
 MicOpt= -1 -1 -1 -1 -1 -1 -1 -1 -1 -1 -1 -1 -1 -1 -1 -1 -1 -1 -1 -1
 MicOpt= -1 -1 -1 -1 -1 -1 -1 -1 -1 -1 -1 -1 -1 -1 -1 -1 -1 -1 -1 -1
 MicOpt= -1 -1 -1 -1 -1 -1 -1 -1 -1 -1 -1 -1 -1 -1 -1 -1 -1 -1 -1 -1
 MicOpt= -1 -1 -1 -1 -1 -1 -1 -1 -1 -1 -1 -1 -1 -1 -1 -1 -1 -1 -1 -1
 MicOpt= -1 -1 -1
 NAtoms=     83 NQM=       83 NQMF=       0 NMMI=      0 NMMIF=      0
                NMic=       0 NMicF=      0.
                    Isotopes and Nuclear Properties:
 (Nuclear quadrupole moments (NQMom) in fm**2, nuclear magnetic moments (NMagM)
  in nuclear magnetons)

  Atom         1           2           3           4           5           6           7           8           9          10
 IAtWgt=          12          12           1           1           1          12           1          12           1           1
 AtmWgt=  12.0000000  12.0000000   1.0078250   1.0078250   1.0078250  12.0000000   1.0078250  12.0000000   1.0078250   1.0078250
 NucSpn=           0           0           1           1           1           0           1           0           1           1
 AtZEff=  -0.0000000  -0.0000000  -0.0000000  -0.0000000  -0.0000000  -0.0000000  -0.0000000  -0.0000000  -0.0000000  -0.0000000
 NQMom=    0.0000000   0.0000000   0.0000000   0.0000000   0.0000000   0.0000000   0.0000000   0.0000000   0.0000000   0.0000000
 NMagM=    0.0000000   0.0000000   2.7928460   2.7928460   2.7928460   0.0000000   2.7928460   0.0000000   2.7928460   2.7928460
 AtZNuc=   6.0000000   6.0000000   1.0000000   1.0000000   1.0000000   6.0000000   1.0000000   6.0000000   1.0000000   1.0000000

  Atom        11          12          13          14          15          16          17          18          19          20
 IAtWgt=          12          12          12           1           1           1          12          12          12          12
 AtmWgt=  12.0000000  12.0000000  12.0000000   1.0078250   1.0078250   1.0078250  12.0000000  12.0000000  12.0000000  12.0000000
 NucSpn=           0           0           0           1           1           1           0           0           0           0
 AtZEff=  -0.0000000  -0.0000000  -0.0000000  -0.0000000  -0.0000000  -0.0000000  -0.0000000  -0.0000000  -0.0000000  -0.0000000
 NQMom=    0.0000000   0.0000000   0.0000000   0.0000000   0.0000000   0.0000000   0.0000000   0.0000000   0.0000000   0.0000000
 NMagM=    0.0000000   0.0000000   0.0000000   2.7928460   2.7928460   2.7928460   0.0000000   0.0000000   0.0000000   0.0000000
 AtZNuc=   6.0000000   6.0000000   6.0000000   1.0000000   1.0000000   1.0000000   6.0000000   6.0000000   6.0000000   6.0000000

  Atom        21          22          23          24          25          26          27          28          29          30
 IAtWgt=           1          12           1          12           1           1          12          12          12          12
 AtmWgt=   1.0078250  12.0000000   1.0078250  12.0000000   1.0078250   1.0078250  12.0000000  12.0000000  12.0000000  12.0000000
 NucSpn=           1           0           1           0           1           1           0           0           0           0
 AtZEff=  -0.0000000  -0.0000000  -0.0000000  -0.0000000  -0.0000000  -0.0000000  -0.0000000  -0.0000000  -0.0000000  -0.0000000
 NQMom=    0.0000000   0.0000000   0.0000000   0.0000000   0.0000000   0.0000000   0.0000000   0.0000000   0.0000000   0.0000000
 NMagM=    2.7928460   0.0000000   2.7928460   0.0000000   2.7928460   2.7928460   0.0000000   0.0000000   0.0000000   0.0000000
 AtZNuc=   1.0000000   6.0000000   1.0000000   6.0000000   1.0000000   1.0000000   6.0000000   6.0000000   6.0000000   6.0000000

  Atom        31          32          33          34          35          36          37          38          39          40
 IAtWgt=           1          12           1          12           1           1          12           1           1          12
 AtmWgt=   1.0078250  12.0000000   1.0078250  12.0000000   1.0078250   1.0078250  12.0000000   1.0078250   1.0078250  12.0000000
 NucSpn=           1           0           1           0           1           1           0           1           1           0
 AtZEff=  -0.0000000  -0.0000000  -0.0000000  -0.0000000  -0.0000000  -0.0000000  -0.0000000  -0.0000000  -0.0000000  -0.0000000
 NQMom=    0.0000000   0.0000000   0.0000000   0.0000000   0.0000000   0.0000000   0.0000000   0.0000000   0.0000000   0.0000000
 NMagM=    2.7928460   0.0000000   2.7928460   0.0000000   2.7928460   2.7928460   0.0000000   2.7928460   2.7928460   0.0000000
 AtZNuc=   1.0000000   6.0000000   1.0000000   6.0000000   1.0000000   1.0000000   6.0000000   1.0000000   1.0000000   6.0000000

  Atom        41          42          43          44          45          46          47          48          49          50
 IAtWgt=           1           1          12           1           1           1          12           1           1           1
 AtmWgt=   1.0078250   1.0078250  12.0000000   1.0078250   1.0078250   1.0078250  12.0000000   1.0078250   1.0078250   1.0078250
 NucSpn=           1           1           0           1           1           1           0           1           1           1
 AtZEff=  -0.0000000  -0.0000000  -0.0000000  -0.0000000  -0.0000000  -0.0000000  -0.0000000  -0.0000000  -0.0000000  -0.0000000
 NQMom=    0.0000000   0.0000000   0.0000000   0.0000000   0.0000000   0.0000000   0.0000000   0.0000000   0.0000000   0.0000000
 NMagM=    2.7928460   2.7928460   0.0000000   2.7928460   2.7928460   2.7928460   0.0000000   2.7928460   2.7928460   2.7928460
 AtZNuc=   1.0000000   1.0000000   6.0000000   1.0000000   1.0000000   1.0000000   6.0000000   1.0000000   1.0000000   1.0000000

  Atom        51          52          53          54          55          56          57          58          59          60
 IAtWgt=          12           1           1           1          12           1           1           1          12           1
 AtmWgt=  12.0000000   1.0078250   1.0078250   1.0078250  12.0000000   1.0078250   1.0078250   1.0078250  12.0000000   1.0078250
 NucSpn=           0           1           1           1           0           1           1           1           0           1
 AtZEff=  -0.0000000  -0.0000000  -0.0000000  -0.0000000  -0.0000000  -0.0000000  -0.0000000  -0.0000000  -0.0000000  -0.0000000
 NQMom=    0.0000000   0.0000000   0.0000000   0.0000000   0.0000000   0.0000000   0.0000000   0.0000000   0.0000000   0.0000000
 NMagM=    0.0000000   2.7928460   2.7928460   2.7928460   0.0000000   2.7928460   2.7928460   2.7928460   0.0000000   2.7928460
 AtZNuc=   6.0000000   1.0000000   1.0000000   1.0000000   6.0000000   1.0000000   1.0000000   1.0000000   6.0000000   1.0000000

  Atom        61          62          63          64          65          66          67          68          69          70
 IAtWgt=           1           1          12           1           1           1          14          14           1           1
 AtmWgt=   1.0078250   1.0078250  12.0000000   1.0078250   1.0078250   1.0078250  14.0030740  14.0030740   1.0078250   1.0078250
 NucSpn=           1           1           0           1           1           1           2           2           1           1
 AtZEff=  -0.0000000  -0.0000000  -0.0000000  -0.0000000  -0.0000000  -0.0000000  -0.0000000  -0.0000000  -0.0000000  -0.0000000
 NQMom=    0.0000000   0.0000000   0.0000000   0.0000000   0.0000000   0.0000000   2.0440000   2.0440000   0.0000000   0.0000000
 NMagM=    2.7928460   2.7928460   0.0000000   2.7928460   2.7928460   2.7928460   0.4037610   0.4037610   2.7928460   2.7928460
 AtZNuc=   1.0000000   1.0000000   6.0000000   1.0000000   1.0000000   1.0000000   7.0000000   7.0000000   1.0000000   1.0000000

  Atom        71          72          73          74          75          76          77          78          79          80
 IAtWgt=           1           1           1          12          16          16          16          16           1           1
 AtmWgt=   1.0078250   1.0078250   1.0078250  12.0000000  15.9949146  15.9949146  15.9949146  15.9949146   1.0078250   1.0078250
 NucSpn=           1           1           1           0           0           0           0           0           1           1
 AtZEff=  -0.0000000  -0.0000000  -0.0000000  -0.0000000  -0.0000000  -0.0000000  -0.0000000  -0.0000000  -0.0000000  -0.0000000
 NQMom=    0.0000000   0.0000000   0.0000000   0.0000000   0.0000000   0.0000000   0.0000000   0.0000000   0.0000000   0.0000000
 NMagM=    2.7928460   2.7928460   2.7928460   0.0000000   0.0000000   0.0000000   0.0000000   0.0000000   2.7928460   2.7928460
 AtZNuc=   1.0000000   1.0000000   1.0000000   6.0000000   8.0000000   8.0000000   8.0000000   8.0000000   1.0000000   1.0000000

  Atom        81          82          83
 IAtWgt=          16           1           1
 AtmWgt=  15.9949146   1.0078250   1.0078250
 NucSpn=           0           1           1
 AtZEff=  -0.0000000  -0.0000000  -0.0000000
 NQMom=    0.0000000   0.0000000   0.0000000
 NMagM=    0.0000000   2.7928460   2.7928460
 AtZNuc=   8.0000000   1.0000000   1.0000000
 Leave Link  101 at Sat Mar 30 11:37:56 2024, MaxMem=  1744830464 cpu:              13.9 elap:               0.4
 (Enter /packages/apps/gaussian/g16/g16/l103.exe)

 GradGradGradGradGradGradGradGradGradGradGradGradGradGradGradGradGradGrad
 Berny optimization.
 Initialization pass.
 Force constant matrix read from checkpoint file:
 "2water-v2.chk"
 NVar current= 474 chk= 485 common= 445.
                           ----------------------------
                           !    Initial Parameters    !
                           ! (Angstroms and Degrees)  !
 --------------------------                            --------------------------
 ! Name  Definition              Value          Derivative Info.                !
 --------------------------------------------------------------------------------
 ! R1    R(1,2)                  1.5294         D2E/DX2 =    0.2785             !
 ! R2    R(1,3)                  1.0909         D2E/DX2 =    0.3308             !
 ! R3    R(1,4)                  1.0915         D2E/DX2 =    0.3305             !
 ! R4    R(1,5)                  1.0901         D2E/DX2 =    0.3326             !
 ! R5    R(2,6)                  1.5395         D2E/DX2 =    0.2591             !
 ! R6    R(2,7)                  1.094          D2E/DX2 =    0.3211             !
 ! R7    R(2,17)                 1.5174         D2E/DX2 =    0.2719             !
 ! R8    R(6,8)                  1.5285         D2E/DX2 =    0.269              !
 ! R9    R(6,69)                 1.0929         D2E/DX2 =    0.3221             !
 ! R10   R(6,70)                 1.094          D2E/DX2 =    0.3286             !
 ! R11   R(8,9)                  1.0942         D2E/DX2 =    0.3227             !
 ! R12   R(8,10)                 1.0916         D2E/DX2 =    0.3336             !
 ! R13   R(8,11)                 1.5326         D2E/DX2 =    0.2508             !
 ! R14   R(11,12)                1.5369         D2E/DX2 =    0.2647             !
 ! R15   R(11,27)                1.5173         D2E/DX2 =    0.2709             !
 ! R16   R(11,73)                1.0957         D2E/DX2 =    0.3206             !
 ! R17   R(12,13)                1.5245         D2E/DX2 =    0.2919             !
 ! R18   R(12,71)                1.0936         D2E/DX2 =    0.3255             !
 ! R19   R(12,72)                1.0927         D2E/DX2 =    0.3245             !
 ! R20   R(13,14)                1.0901         D2E/DX2 =    0.3313             !
 ! R21   R(13,15)                1.0904         D2E/DX2 =    0.3354             !
 ! R22   R(13,16)                1.0923         D2E/DX2 =    0.3339             !
 ! R23   R(17,18)                1.3952         D2E/DX2 =    0.3643             !
 ! R24   R(17,19)                1.3914         D2E/DX2 =    0.3744             !
 ! R25   R(18,20)                1.3844         D2E/DX2 =    0.3701             !
 ! R26   R(18,21)                1.0825         D2E/DX2 =    0.3516             !
 ! R27   R(19,22)                1.3877         D2E/DX2 =    0.3696             !
 ! R28   R(19,23)                1.0835         D2E/DX2 =    0.3485             !
 ! R29   R(20,24)                1.3923         D2E/DX2 =    0.3764             !
 ! R30   R(20,25)                1.0832         D2E/DX2 =    0.3443             !
 ! R31   R(22,24)                1.3918         D2E/DX2 =    0.3761             !
 ! R32   R(22,26)                1.0834         D2E/DX2 =    0.3506             !
 ! R33   R(24,40)                1.4983         D2E/DX2 =    0.282              !
 ! R34   R(27,28)                1.3911         D2E/DX2 =    0.3703             !
 ! R35   R(27,29)                1.3955         D2E/DX2 =    0.3696             !
 ! R36   R(28,30)                1.3889         D2E/DX2 =    0.37               !
 ! R37   R(28,31)                1.0832         D2E/DX2 =    0.3481             !
 ! R38   R(29,32)                1.3831         D2E/DX2 =    0.3733             !
 ! R39   R(29,33)                1.0824         D2E/DX2 =    0.3533             !
 ! R40   R(30,34)                1.3891         D2E/DX2 =    0.3766             !
 ! R41   R(30,35)                1.0843         D2E/DX2 =    0.3498             !
 ! R42   R(32,34)                1.3967         D2E/DX2 =    0.373              !
 ! R43   R(32,36)                1.0862         D2E/DX2 =    0.3435             !
 ! R44   R(34,37)                1.497          D2E/DX2 =    0.2894             !
 ! R45   R(37,38)                1.0805         D2E/DX2 =    0.4017             !
 ! R46   R(37,39)                1.0914         D2E/DX2 =    0.3253             !
 ! R47   R(37,67)                1.5319         D2E/DX2 =    0.2517             !
 ! R48   R(38,77)                1.9094         D2E/DX2 =    0.0299             !
 ! R49   R(40,41)                1.0823         D2E/DX2 =    0.3656             !
 ! R50   R(40,42)                1.0881         D2E/DX2 =    0.3345             !
 ! R51   R(40,68)                1.5264         D2E/DX2 =    0.2406             !
 ! R52   R(41,83)                2.0651         D2E/DX2 =    0.0179             !
 ! R53   R(43,44)                1.0874         D2E/DX2 =    0.3375             !
 ! R54   R(43,45)                1.0913         D2E/DX2 =    0.3508             !
 ! R55   R(43,46)                1.0878         D2E/DX2 =    0.3364             !
 ! R56   R(43,67)                1.4939         D2E/DX2 =    0.2521             !
 ! R57   R(47,48)                1.0867         D2E/DX2 =    0.3383             !
 ! R58   R(47,49)                1.1002         D2E/DX2 =    0.3598             !
 ! R59   R(47,50)                1.0879         D2E/DX2 =    0.3357             !
 ! R60   R(47,67)                1.5008         D2E/DX2 =    0.2576             !
 ! R61   R(49,75)                1.9276         D2E/DX2 =    0.0487             !
 ! R62   R(51,52)                1.088          D2E/DX2 =    0.3382             !
 ! R63   R(51,53)                1.0869         D2E/DX2 =    0.3379             !
 ! R64   R(51,54)                1.0878         D2E/DX2 =    0.3371             !
 ! R65   R(51,67)                1.4811         D2E/DX2 =    0.2867             !
 ! R66   R(55,56)                1.0879         D2E/DX2 =    0.3371             !
 ! R67   R(55,57)                1.0891         D2E/DX2 =    0.3453             !
 ! R68   R(55,58)                1.0866         D2E/DX2 =    0.3494             !
 ! R69   R(55,68)                1.4982         D2E/DX2 =    0.2455             !
 ! R70   R(59,60)                1.0866         D2E/DX2 =    0.3398             !
 ! R71   R(59,61)                1.087          D2E/DX2 =    0.3405             !
 ! R72   R(59,62)                1.0883         D2E/DX2 =    0.3355             !
 ! R73   R(59,68)                1.4836         D2E/DX2 =    0.2874             !
 ! R74   R(63,64)                1.0864         D2E/DX2 =    0.3389             !
 ! R75   R(63,65)                1.0944         D2E/DX2 =    0.3396             !
 ! R76   R(63,66)                1.0879         D2E/DX2 =    0.3369             !
 ! R77   R(63,68)                1.4891         D2E/DX2 =    0.28               !
 ! R78   R(74,75)                1.2814         D2E/DX2 =    0.6111             !
 ! R79   R(74,76)                1.2696         D2E/DX2 =    0.7043             !
 ! R80   R(74,77)                1.3164         D2E/DX2 =    0.7484             !
 ! R81   R(75,79)                1.7395         D2E/DX2 =    0.0121             !
 ! R82   R(77,83)                1.572          D2E/DX2 =    0.0314             !
 ! R83   R(78,79)                0.9882         D2E/DX2 =    0.3815             !
 ! R84   R(78,80)                0.9626         D2E/DX2 =    0.3951             !
 ! R85   R(81,82)                0.9623         D2E/DX2 =    0.4906             !
 ! R86   R(81,83)                1.0076         D2E/DX2 =    0.4523             !
 ! A1    A(2,1,3)              111.2799         D2E/DX2 =    0.1026             !
 ! A2    A(2,1,4)              110.1977         D2E/DX2 =    0.103              !
 ! A3    A(2,1,5)              111.6028         D2E/DX2 =    0.1036             !
 ! A4    A(3,1,4)              108.2398         D2E/DX2 =    0.0504             !
 ! A5    A(3,1,5)              107.938          D2E/DX2 =    0.0523             !
 ! A6    A(4,1,5)              107.4334         D2E/DX2 =    0.0519             !
 ! A7    A(1,2,6)              111.0809         D2E/DX2 =    0.071              !
 ! A8    A(1,2,7)              107.3553         D2E/DX2 =    0.0242             !
 ! A9    A(1,2,17)             112.6799         D2E/DX2 =    0.0584             !
 ! A10   A(6,2,7)              108.0422         D2E/DX2 =    0.0238             !
 ! A11   A(6,2,17)             109.9962         D2E/DX2 =    0.0416             !
 ! A12   A(7,2,17)             107.4791         D2E/DX2 =    0.0214             !
 ! A13   A(2,6,8)              113.3692         D2E/DX2 =    0.1238             !
 ! A14   A(2,6,69)             109.2672         D2E/DX2 =    0.0461             !
 ! A15   A(2,6,70)             107.9554         D2E/DX2 =    0.0495             !
 ! A16   A(8,6,69)             109.3812         D2E/DX2 =    0.047              !
 ! A17   A(8,6,70)             110.2814         D2E/DX2 =    0.0488             !
 ! A18   A(69,6,70)            106.3375         D2E/DX2 =    0.0178             !
 ! A19   A(6,8,9)              109.2974         D2E/DX2 =    0.0435             !
 ! A20   A(6,8,10)             109.8279         D2E/DX2 =    0.0484             !
 ! A21   A(6,8,11)             114.5484         D2E/DX2 =    0.0953             !
 ! A22   A(9,8,10)             105.7607         D2E/DX2 =    0.0168             !
 ! A23   A(9,8,11)             108.7326         D2E/DX2 =    0.0438             !
 ! A24   A(10,8,11)            108.3009         D2E/DX2 =    0.0473             !
 ! A25   A(8,11,12)            110.4435         D2E/DX2 =    0.0775             !
 ! A26   A(8,11,27)            111.8568         D2E/DX2 =    0.0456             !
 ! A27   A(8,11,73)            108.2864         D2E/DX2 =    0.0241             !
 ! A28   A(12,11,27)           111.1544         D2E/DX2 =    0.0579             !
 ! A29   A(12,11,73)           107.5911         D2E/DX2 =    0.0226             !
 ! A30   A(27,11,73)           107.3212         D2E/DX2 =    0.0225             !
 ! A31   A(11,12,13)           114.0321         D2E/DX2 =    0.1496             !
 ! A32   A(11,12,71)           108.6817         D2E/DX2 =    0.0498             !
 ! A33   A(11,12,72)           108.3033         D2E/DX2 =    0.0484             !
 ! A34   A(13,12,71)           109.6654         D2E/DX2 =    0.0529             !
 ! A35   A(13,12,72)           109.4384         D2E/DX2 =    0.0517             !
 ! A36   A(71,12,72)           106.4361         D2E/DX2 =    0.0183             !
 ! A37   A(12,13,14)           110.9529         D2E/DX2 =    0.104              !
 ! A38   A(12,13,15)           111.2857         D2E/DX2 =    0.1043             !
 ! A39   A(12,13,16)           110.9854         D2E/DX2 =    0.1041             !
 ! A40   A(14,13,15)           107.9387         D2E/DX2 =    0.0508             !
 ! A41   A(14,13,16)           107.8312         D2E/DX2 =    0.0504             !
 ! A42   A(15,13,16)           107.6937         D2E/DX2 =    0.0528             !
 ! A43   A(2,17,18)            121.0166         D2E/DX2 =    0.1046             !
 ! A44   A(2,17,19)            120.9695         D2E/DX2 =    0.1072             !
 ! A45   A(18,17,19)           117.8905         D2E/DX2 =    0.0838             !
 ! A46   A(17,18,20)           121.122          D2E/DX2 =    0.0804             !
 ! A47   A(17,18,21)           119.9853         D2E/DX2 =    0.0812             !
 ! A48   A(20,18,21)           118.8696         D2E/DX2 =    0.0837             !
 ! A49   A(17,19,22)           121.177          D2E/DX2 =    0.0799             !
 ! A50   A(17,19,23)           119.3477         D2E/DX2 =    0.0818             !
 ! A51   A(22,19,23)           119.4634         D2E/DX2 =    0.0826             !
 ! A52   A(18,20,24)           120.7362         D2E/DX2 =    0.0798             !
 ! A53   A(18,20,25)           120.2099         D2E/DX2 =    0.085              !
 ! A54   A(24,20,25)           119.0048         D2E/DX2 =    0.0847             !
 ! A55   A(19,22,24)           120.6218         D2E/DX2 =    0.0794             !
 ! A56   A(19,22,26)           119.5151         D2E/DX2 =    0.0829             !
 ! A57   A(24,22,26)           119.8485         D2E/DX2 =    0.0814             !
 ! A58   A(20,24,22)           118.4293         D2E/DX2 =    0.0839             !
 ! A59   A(20,24,40)           119.2299         D2E/DX2 =    0.1004             !
 ! A60   A(22,24,40)           122.2522         D2E/DX2 =    0.1012             !
 ! A61   A(11,27,28)           120.7617         D2E/DX2 =    0.1049             !
 ! A62   A(11,27,29)           121.1712         D2E/DX2 =    0.1011             !
 ! A63   A(28,27,29)           118.0636         D2E/DX2 =    0.0845             !
 ! A64   A(27,28,30)           120.9662         D2E/DX2 =    0.08               !
 ! A65   A(27,28,31)           119.4268         D2E/DX2 =    0.0819             !
 ! A66   A(30,28,31)           119.6069         D2E/DX2 =    0.0825             !
 ! A67   A(27,29,32)           121.4378         D2E/DX2 =    0.0812             !
 ! A68   A(27,29,33)           120.244          D2E/DX2 =    0.0826             !
 ! A69   A(32,29,33)           118.3037         D2E/DX2 =    0.0864             !
 ! A70   A(28,30,34)           120.4849         D2E/DX2 =    0.0797             !
 ! A71   A(28,30,35)           119.5685         D2E/DX2 =    0.0823             !
 ! A72   A(34,30,35)           119.932          D2E/DX2 =    0.0811             !
 ! A73   A(29,32,34)           119.9958         D2E/DX2 =    0.0801             !
 ! A74   A(29,32,36)           120.8115         D2E/DX2 =    0.0871             !
 ! A75   A(34,32,36)           119.1923         D2E/DX2 =    0.0882             !
 ! A76   A(30,34,32)           119.0356         D2E/DX2 =    0.0846             !
 ! A77   A(30,34,37)           121.9237         D2E/DX2 =    0.0997             !
 ! A78   A(32,34,37)           118.9949         D2E/DX2 =    0.0981             !
 ! A79   A(34,37,38)           109.792          D2E/DX2 =    0.0429             !
 ! A80   A(34,37,39)           111.7754         D2E/DX2 =    0.0259             !
 ! A81   A(34,37,67)           114.8193         D2E/DX2 =    0.0731             !
 ! A82   A(38,37,39)           111.2856         D2E/DX2 =    0.0261             !
 ! A83   A(38,37,67)           103.864          D2E/DX2 =    0.1298             !
 ! A84   A(39,37,67)           104.9904         D2E/DX2 =    0.0325             !
 ! A85   A(37,38,77)           147.691          D2E/DX2 =    0.0789             !
 ! A86   A(24,40,41)           109.626          D2E/DX2 =    0.0361             !
 ! A87   A(24,40,42)           112.7653         D2E/DX2 =    0.0292             !
 ! A88   A(24,40,68)           115.1369         D2E/DX2 =    0.0988             !
 ! A89   A(41,40,42)           109.5913         D2E/DX2 =    0.0209             !
 ! A90   A(41,40,68)           102.9265         D2E/DX2 =    0.0975             !
 ! A91   A(42,40,68)           106.2591         D2E/DX2 =    0.0375             !
 ! A92   A(44,43,45)           111.7472         D2E/DX2 =    0.053              !
 ! A93   A(44,43,46)           110.1913         D2E/DX2 =    0.0512             !
 ! A94   A(44,43,67)           108.7556         D2E/DX2 =    0.1264             !
 ! A95   A(45,43,46)           110.315          D2E/DX2 =    0.0529             !
 ! A96   A(45,43,67)           107.163          D2E/DX2 =    0.1317             !
 ! A97   A(46,43,67)           108.5575         D2E/DX2 =    0.1271             !
 ! A98   A(48,47,49)           110.4556         D2E/DX2 =    0.0556             !
 ! A99   A(48,47,50)           109.8232         D2E/DX2 =    0.051              !
 ! A100  A(48,47,67)           108.4479         D2E/DX2 =    0.1262             !
 ! A101  A(49,47,50)           110.1629         D2E/DX2 =    0.0535             !
 ! A102  A(49,47,67)           110.8552         D2E/DX2 =    0.1359             !
 ! A103  A(50,47,67)           107.019          D2E/DX2 =    0.1274             !
 ! A104  A(52,51,53)           110.0361         D2E/DX2 =    0.0526             !
 ! A105  A(52,51,54)           109.8658         D2E/DX2 =    0.0519             !
 ! A106  A(52,51,67)           109.2775         D2E/DX2 =    0.1266             !
 ! A107  A(53,51,54)           109.8613         D2E/DX2 =    0.0517             !
 ! A108  A(53,51,67)           108.7837         D2E/DX2 =    0.125              !
 ! A109  A(54,51,67)           108.9909         D2E/DX2 =    0.1265             !
 ! A110  A(56,55,57)           112.8383         D2E/DX2 =    0.0513             !
 ! A111  A(56,55,58)           111.8272         D2E/DX2 =    0.0502             !
 ! A112  A(56,55,68)           108.213          D2E/DX2 =    0.1278             !
 ! A113  A(57,55,58)           107.4093         D2E/DX2 =    0.0499             !
 ! A114  A(57,55,68)           108.5616         D2E/DX2 =    0.1291             !
 ! A115  A(58,55,68)           107.8368         D2E/DX2 =    0.1217             !
 ! A116  A(60,59,61)           110.2896         D2E/DX2 =    0.0531             !
 ! A117  A(60,59,62)           109.9224         D2E/DX2 =    0.0519             !
 ! A118  A(60,59,68)           108.6381         D2E/DX2 =    0.1241             !
 ! A119  A(61,59,62)           109.9894         D2E/DX2 =    0.0517             !
 ! A120  A(61,59,68)           109.4162         D2E/DX2 =    0.1264             !
 ! A121  A(62,59,68)           108.5481         D2E/DX2 =    0.1276             !
 ! A122  A(64,63,65)           110.4536         D2E/DX2 =    0.0539             !
 ! A123  A(64,63,66)           110.0432         D2E/DX2 =    0.0514             !
 ! A124  A(64,63,68)           108.8178         D2E/DX2 =    0.1262             !
 ! A125  A(65,63,66)           111.1331         D2E/DX2 =    0.0523             !
 ! A126  A(65,63,68)           107.8631         D2E/DX2 =    0.1284             !
 ! A127  A(66,63,68)           108.4521         D2E/DX2 =    0.1272             !
 ! A128  A(37,67,43)           106.7164         D2E/DX2 =    0.0363             !
 ! A129  A(37,67,47)           112.4755         D2E/DX2 =    0.0411             !
 ! A130  A(37,67,51)           109.9489         D2E/DX2 =    0.0366             !
 ! A131  A(43,67,47)           108.2846         D2E/DX2 =    0.0362             !
 ! A132  A(43,67,51)           110.4262         D2E/DX2 =    0.032              !
 ! A133  A(47,67,51)           108.9602         D2E/DX2 =    0.0373             !
 ! A134  A(40,68,55)           106.768          D2E/DX2 =    0.0424             !
 ! A135  A(40,68,59)           112.0669         D2E/DX2 =    0.0368             !
 ! A136  A(40,68,63)           109.4152         D2E/DX2 =    0.0387             !
 ! A137  A(55,68,59)           108.7567         D2E/DX2 =    0.0358             !
 ! A138  A(55,68,63)           109.3618         D2E/DX2 =    0.0332             !
 ! A139  A(59,68,63)           110.3764         D2E/DX2 =    0.035              !
 ! A140  A(75,74,76)           123.7019         D2E/DX2 =    0.1447             !
 ! A141  A(75,74,77)           116.9732         D2E/DX2 =    0.2208             !
 ! A142  A(76,74,77)           119.2723         D2E/DX2 =    0.2595             !
 ! A143  A(49,75,74)            97.1022         D2E/DX2 =    0.16               !
 ! A144  A(49,75,79)           154.3209         D2E/DX2 =    0.16               !
 ! A145  A(74,75,79)           105.367          D2E/DX2 =    0.0766             !
 ! A146  A(38,77,74)           144.3517         D2E/DX2 =    0.1075             !
 ! A147  A(38,77,83)           106.7094         D2E/DX2 =    0.16               !
 ! A148  A(74,77,83)           107.8777         D2E/DX2 =    0.0812             !
 ! A149  A(79,78,80)            97.0443         D2E/DX2 =    0.0836             !
 ! A150  A(75,79,78)           158.314          D2E/DX2 =    0.045              !
 ! A151  A(82,81,83)           100.2139         D2E/DX2 =    0.1925             !
 ! A152  A(41,83,77)            76.3896         D2E/DX2 =    0.16               !
 ! A153  A(41,83,81)            98.2997         D2E/DX2 =    0.0065             !
 ! A154  L(40,41,83,1,-1)      180.0            D2E/DX2 =    0.0023             !
 ! A155  L(47,49,75,1,-1)      186.6307         D2E/DX2 =    0.0023             !
 ! A156  L(77,83,81,41,-1)     174.6893         D2E/DX2 =    0.0093             !
 ! A157  L(40,41,83,1,-2)      180.0            D2E/DX2 =    0.0023             !
 ! A158  L(47,49,75,1,-2)      186.3684         D2E/DX2 =    0.0023             !
 ! A159  L(77,83,81,41,-2)     188.2237         D2E/DX2 =    0.0093             !
 ! D1    D(3,1,2,6)            177.4124         D2E/DX2 =    0.0138             !
 ! D2    D(3,1,2,7)            -64.6675         D2E/DX2 =    0.0127             !
 ! D3    D(3,1,2,17)            53.4746         D2E/DX2 =    0.0138             !
 ! D4    D(4,1,2,6)            -62.509          D2E/DX2 =    0.0139             !
 ! D5    D(4,1,2,7)             55.411          D2E/DX2 =    0.013              !
 ! D6    D(4,1,2,17)           173.5532         D2E/DX2 =    0.014              !
 ! D7    D(5,1,2,6)             56.7672         D2E/DX2 =    0.0136             !
 ! D8    D(5,1,2,7)            174.6872         D2E/DX2 =    0.0126             !
 ! D9    D(5,1,2,17)           -67.1706         D2E/DX2 =    0.0141             !
 ! D10   D(1,2,6,8)            164.7361         D2E/DX2 =    0.0208             !
 ! D11   D(1,2,6,69)            42.4602         D2E/DX2 =    0.0176             !
 ! D12   D(1,2,6,70)           -72.7866         D2E/DX2 =    0.0169             !
 ! D13   D(7,2,6,8)             47.2334         D2E/DX2 =    0.0139             !
 ! D14   D(7,2,6,69)           -75.0426         D2E/DX2 =    0.0142             !
 ! D15   D(7,2,6,70)           169.7107         D2E/DX2 =    0.0136             !
 ! D16   D(17,2,6,8)           -69.8116         D2E/DX2 =    0.0174             !
 ! D17   D(17,2,6,69)          167.9125         D2E/DX2 =    0.018              !
 ! D18   D(17,2,6,70)           52.6657         D2E/DX2 =    0.0167             !
 ! D19   D(1,2,17,18)           51.036          D2E/DX2 =    0.0151             !
 ! D20   D(1,2,17,19)         -133.0882         D2E/DX2 =    0.0152             !
 ! D21   D(6,2,17,18)          -73.499          D2E/DX2 =    0.0159             !
 ! D22   D(6,2,17,19)          102.3769         D2E/DX2 =    0.0144             !
 ! D23   D(7,2,17,18)          169.1054         D2E/DX2 =    0.0112             !
 ! D24   D(7,2,17,19)          -15.0187         D2E/DX2 =    0.0099             !
 ! D25   D(2,6,8,9)            -86.5389         D2E/DX2 =    0.0158             !
 ! D26   D(2,6,8,10)            29.0669         D2E/DX2 =    0.0171             !
 ! D27   D(2,6,8,11)           151.1843         D2E/DX2 =    0.0184             !
 ! D28   D(69,6,8,9)            35.6737         D2E/DX2 =    0.0155             !
 ! D29   D(69,6,8,10)          151.2796         D2E/DX2 =    0.0154             !
 ! D30   D(69,6,8,11)          -86.603          D2E/DX2 =    0.0154             !
 ! D31   D(70,6,8,9)           152.2829         D2E/DX2 =    0.0153             !
 ! D32   D(70,6,8,10)          -92.1112         D2E/DX2 =    0.0161             !
 ! D33   D(70,6,8,11)           30.0062         D2E/DX2 =    0.0159             !
 ! D34   D(6,8,11,12)          174.1824         D2E/DX2 =    0.0194             !
 ! D35   D(6,8,11,27)          -61.4506         D2E/DX2 =    0.0169             !
 ! D36   D(6,8,11,73)           56.6098         D2E/DX2 =    0.0139             !
 ! D37   D(9,8,11,12)           51.5993         D2E/DX2 =    0.017              !
 ! D38   D(9,8,11,27)          175.9663         D2E/DX2 =    0.0167             !
 ! D39   D(9,8,11,73)          -65.9733         D2E/DX2 =    0.0138             !
 ! D40   D(10,8,11,12)         -62.8728         D2E/DX2 =    0.0159             !
 ! D41   D(10,8,11,27)          61.4942         D2E/DX2 =    0.0166             !
 ! D42   D(10,8,11,73)         179.5546         D2E/DX2 =    0.013              !
 ! D43   D(8,11,12,13)        -175.5669         D2E/DX2 =    0.0149             !
 ! D44   D(8,11,12,71)          61.7679         D2E/DX2 =    0.0148             !
 ! D45   D(8,11,12,72)         -53.4743         D2E/DX2 =    0.0154             !
 ! D46   D(27,11,12,13)         59.6644         D2E/DX2 =    0.0152             !
 ! D47   D(27,11,12,71)        -63.0008         D2E/DX2 =    0.0147             !
 ! D48   D(27,11,12,72)       -178.243          D2E/DX2 =    0.0159             !
 ! D49   D(73,11,12,13)        -57.5671         D2E/DX2 =    0.0125             !
 ! D50   D(73,11,12,71)        179.7677         D2E/DX2 =    0.0133             !
 ! D51   D(73,11,12,72)         64.5255         D2E/DX2 =    0.0136             !
 ! D52   D(8,11,27,28)         130.2703         D2E/DX2 =    0.015              !
 ! D53   D(8,11,27,29)         -50.4289         D2E/DX2 =    0.016              !
 ! D54   D(12,11,27,28)       -105.7605         D2E/DX2 =    0.0161             !
 ! D55   D(12,11,27,29)         73.5403         D2E/DX2 =    0.0168             !
 ! D56   D(73,11,27,28)         11.6353         D2E/DX2 =    0.01               !
 ! D57   D(73,11,27,29)       -169.0639         D2E/DX2 =    0.0112             !
 ! D58   D(11,12,13,14)        177.2599         D2E/DX2 =    0.0141             !
 ! D59   D(11,12,13,15)        -62.5323         D2E/DX2 =    0.014              !
 ! D60   D(11,12,13,16)         57.3877         D2E/DX2 =    0.0137             !
 ! D61   D(71,12,13,14)        -60.614          D2E/DX2 =    0.0143             !
 ! D62   D(71,12,13,15)         59.5938         D2E/DX2 =    0.0149             !
 ! D63   D(71,12,13,16)        179.5138         D2E/DX2 =    0.0142             !
 ! D64   D(72,12,13,14)         55.7935         D2E/DX2 =    0.0147             !
 ! D65   D(72,12,13,15)        176.0013         D2E/DX2 =    0.0146             !
 ! D66   D(72,12,13,16)        -64.0787         D2E/DX2 =    0.0151             !
 ! D67   D(2,17,18,20)         176.5458         D2E/DX2 =    0.0103             !
 ! D68   D(2,17,18,21)          -1.6844         D2E/DX2 =    0.0084             !
 ! D69   D(19,17,18,20)          0.5465         D2E/DX2 =    0.0079             !
 ! D70   D(19,17,18,21)       -177.6836         D2E/DX2 =    0.0072             !
 ! D71   D(2,17,19,22)        -175.6909         D2E/DX2 =    0.0098             !
 ! D72   D(2,17,19,23)           3.0463         D2E/DX2 =    0.0086             !
 ! D73   D(18,17,19,22)          0.3103         D2E/DX2 =    0.0078             !
 ! D74   D(18,17,19,23)        179.0475         D2E/DX2 =    0.0072             !
 ! D75   D(17,18,20,24)         -0.2127         D2E/DX2 =    0.0089             !
 ! D76   D(17,18,20,25)       -177.6378         D2E/DX2 =    0.0093             !
 ! D77   D(21,18,20,24)        178.0368         D2E/DX2 =    0.0086             !
 ! D78   D(21,18,20,25)          0.6116         D2E/DX2 =    0.0094             !
 ! D79   D(17,19,22,24)         -1.5139         D2E/DX2 =    0.0091             !
 ! D80   D(17,19,22,26)        177.0966         D2E/DX2 =    0.0087             !
 ! D81   D(23,19,22,24)        179.7503         D2E/DX2 =    0.0089             !
 ! D82   D(23,19,22,26)         -1.6392         D2E/DX2 =    0.0091             !
 ! D83   D(18,20,24,22)         -0.966          D2E/DX2 =    0.0078             !
 ! D84   D(18,20,24,40)       -177.6219         D2E/DX2 =    0.0094             !
 ! D85   D(25,20,24,22)        176.4898         D2E/DX2 =    0.0077             !
 ! D86   D(25,20,24,40)         -0.1661         D2E/DX2 =    0.0088             !
 ! D87   D(19,22,24,20)          1.8154         D2E/DX2 =    0.0081             !
 ! D88   D(19,22,24,40)        178.3646         D2E/DX2 =    0.0101             !
 ! D89   D(26,22,24,20)       -176.7906         D2E/DX2 =    0.0075             !
 ! D90   D(26,22,24,40)         -0.2413         D2E/DX2 =    0.0083             !
 ! D91   D(20,24,40,41)         17.1777         D2E/DX2 =    0.0155             !
 ! D92   D(20,24,40,42)        139.5698         D2E/DX2 =    0.0102             !
 ! D93   D(20,24,40,68)        -98.2686         D2E/DX2 =    0.022              !
 ! D94   D(22,24,40,41)       -159.3449         D2E/DX2 =    0.015              !
 ! D95   D(22,24,40,42)        -36.9527         D2E/DX2 =    0.0103             !
 ! D96   D(22,24,40,68)         85.2088         D2E/DX2 =    0.024              !
 ! D97   D(11,27,28,30)        178.8599         D2E/DX2 =    0.009              !
 ! D98   D(11,27,28,31)         -1.2824         D2E/DX2 =    0.0081             !
 ! D99   D(29,27,28,30)         -0.4622         D2E/DX2 =    0.0078             !
 ! D100  D(29,27,28,31)        179.3955         D2E/DX2 =    0.007              !
 ! D101  D(11,27,29,32)       -179.823          D2E/DX2 =    0.0095             !
 ! D102  D(11,27,29,33)          1.588          D2E/DX2 =    0.0081             !
 ! D103  D(28,27,29,32)         -0.5038         D2E/DX2 =    0.0077             !
 ! D104  D(28,27,29,33)       -179.0928         D2E/DX2 =    0.0074             !
 ! D105  D(27,28,30,34)          0.5127         D2E/DX2 =    0.0092             !
 ! D106  D(27,28,30,35)        179.1175         D2E/DX2 =    0.0085             !
 ! D107  D(31,28,30,34)       -179.3448         D2E/DX2 =    0.0087             !
 ! D108  D(31,28,30,35)         -0.7399         D2E/DX2 =    0.0088             !
 ! D109  D(27,29,32,34)          1.4164         D2E/DX2 =    0.009              !
 ! D110  D(27,29,32,36)       -178.8275         D2E/DX2 =    0.0098             !
 ! D111  D(33,29,32,34)       -179.9681         D2E/DX2 =    0.0084             !
 ! D112  D(33,29,32,36)         -0.212          D2E/DX2 =    0.0098             !
 ! D113  D(28,30,34,32)          0.396          D2E/DX2 =    0.0081             !
 ! D114  D(28,30,34,37)        177.9079         D2E/DX2 =    0.0091             !
 ! D115  D(35,30,34,32)       -178.2037         D2E/DX2 =    0.0071             !
 ! D116  D(35,30,34,37)         -0.6919         D2E/DX2 =    0.0077             !
 ! D117  D(29,32,34,30)         -1.3434         D2E/DX2 =    0.0081             !
 ! D118  D(29,32,34,37)       -178.9291         D2E/DX2 =    0.0084             !
 ! D119  D(36,32,34,30)        178.8965         D2E/DX2 =    0.0089             !
 ! D120  D(36,32,34,37)          1.3109         D2E/DX2 =    0.0095             !
 ! D121  D(30,34,37,38)       -145.3412         D2E/DX2 =    0.0199             !
 ! D122  D(30,34,37,39)        -21.3402         D2E/DX2 =    0.0099             !
 ! D123  D(30,34,37,67)         98.1071         D2E/DX2 =    0.0299             !
 ! D124  D(32,34,37,38)         32.1716         D2E/DX2 =    0.0209             !
 ! D125  D(32,34,37,39)        156.1726         D2E/DX2 =    0.0111             !
 ! D126  D(32,34,37,67)        -84.38           D2E/DX2 =    0.0315             !
 ! D127  D(34,37,38,77)        -72.6513         D2E/DX2 =    0.0137             !
 ! D128  D(39,37,38,77)        163.0627         D2E/DX2 =    0.012              !
 ! D129  D(67,37,38,77)         50.6002         D2E/DX2 =    0.0174             !
 ! D130  D(34,37,67,43)        160.9814         D2E/DX2 =    0.0151             !
 ! D131  D(34,37,67,47)         42.3772         D2E/DX2 =    0.0157             !
 ! D132  D(34,37,67,51)        -79.2389         D2E/DX2 =    0.0127             !
 ! D133  D(38,37,67,43)         41.0871         D2E/DX2 =    0.0168             !
 ! D134  D(38,37,67,47)        -77.5171         D2E/DX2 =    0.0215             !
 ! D135  D(38,37,67,51)        160.8668         D2E/DX2 =    0.0145             !
 ! D136  D(39,37,67,43)        -75.8601         D2E/DX2 =    0.0135             !
 ! D137  D(39,37,67,47)        165.5357         D2E/DX2 =    0.0186             !
 ! D138  D(39,37,67,51)         43.9196         D2E/DX2 =    0.0123             !
 ! D139  D(37,38,77,74)        -15.3877         D2E/DX2 =    0.0211             !
 ! D140  D(37,38,77,83)        179.0271         D2E/DX2 =    0.0023             !
 ! D141  D(24,40,83,77)         83.8688         D2E/DX2 =    0.0023             !
 ! D142  D(24,40,83,81)       -104.3549         D2E/DX2 =    0.0023             !
 ! D143  D(42,40,83,77)        -40.3938         D2E/DX2 =    0.0023             !
 ! D144  D(42,40,83,81)        131.3825         D2E/DX2 =    0.0023             !
 ! D145  D(68,40,83,77)       -153.1371         D2E/DX2 =    0.0023             !
 ! D146  D(68,40,83,81)         18.6392         D2E/DX2 =    0.0023             !
 ! D147  D(24,40,68,55)       -176.4655         D2E/DX2 =    0.0173             !
 ! D148  D(24,40,68,59)        -57.4843         D2E/DX2 =    0.0147             !
 ! D149  D(24,40,68,63)         65.2839         D2E/DX2 =    0.0143             !
 ! D150  D(41,40,68,55)         64.3019         D2E/DX2 =    0.0177             !
 ! D151  D(41,40,68,59)       -176.7169         D2E/DX2 =    0.0136             !
 ! D152  D(41,40,68,63)        -53.9487         D2E/DX2 =    0.0153             !
 ! D153  D(42,40,68,55)        -50.8677         D2E/DX2 =    0.0149             !
 ! D154  D(42,40,68,59)         68.1135         D2E/DX2 =    0.0126             !
 ! D155  D(42,40,68,63)       -169.1183         D2E/DX2 =    0.0145             !
 ! D156  D(44,43,67,37)        177.737          D2E/DX2 =    0.0175             !
 ! D157  D(44,43,67,47)        -60.9566         D2E/DX2 =    0.0176             !
 ! D158  D(44,43,67,51)         58.2659         D2E/DX2 =    0.0149             !
 ! D159  D(45,43,67,37)        -61.3056         D2E/DX2 =    0.019              !
 ! D160  D(45,43,67,47)         60.0008         D2E/DX2 =    0.0184             !
 ! D161  D(45,43,67,51)        179.2232         D2E/DX2 =    0.0161             !
 ! D162  D(46,43,67,37)         57.8362         D2E/DX2 =    0.017              !
 ! D163  D(46,43,67,47)        179.1426         D2E/DX2 =    0.0179             !
 ! D164  D(46,43,67,51)        -61.6349         D2E/DX2 =    0.0149             !
 ! D165  D(48,47,75,74)        140.0621         D2E/DX2 =    0.0023             !
 ! D166  D(48,47,75,79)        -70.702          D2E/DX2 =    0.0023             !
 ! D167  D(50,47,75,74)       -101.6011         D2E/DX2 =    0.0023             !
 ! D168  D(50,47,75,79)         47.6347         D2E/DX2 =    0.0023             !
 ! D169  D(67,47,75,74)         16.6026         D2E/DX2 =    0.0023             !
 ! D170  D(67,47,75,79)        165.8384         D2E/DX2 =    0.0023             !
 ! D171  D(48,47,67,37)        -67.8482         D2E/DX2 =    0.0157             !
 ! D172  D(48,47,67,43)        174.4721         D2E/DX2 =    0.0165             !
 ! D173  D(48,47,67,51)         54.3291         D2E/DX2 =    0.0143             !
 ! D174  D(49,47,67,37)         53.5732         D2E/DX2 =    0.0178             !
 ! D175  D(49,47,67,43)        -64.1065         D2E/DX2 =    0.0177             !
 ! D176  D(49,47,67,51)        175.7504         D2E/DX2 =    0.0161             !
 ! D177  D(50,47,67,37)        173.7294         D2E/DX2 =    0.0159             !
 ! D178  D(50,47,67,43)         56.0497         D2E/DX2 =    0.0157             !
 ! D179  D(50,47,67,51)        -64.0933         D2E/DX2 =    0.0139             !
 ! D180  D(52,51,67,37)        -61.1914         D2E/DX2 =    0.0154             !
 ! D181  D(52,51,67,43)         56.3054         D2E/DX2 =    0.0154             !
 ! D182  D(52,51,67,47)        175.1174         D2E/DX2 =    0.016              !
 ! D183  D(53,51,67,37)         58.9633         D2E/DX2 =    0.0155             !
 ! D184  D(53,51,67,43)        176.4601         D2E/DX2 =    0.0157             !
 ! D185  D(53,51,67,47)        -64.7279         D2E/DX2 =    0.0159             !
 ! D186  D(54,51,67,37)        178.7362         D2E/DX2 =    0.0154             !
 ! D187  D(54,51,67,43)        -63.7671         D2E/DX2 =    0.0154             !
 ! D188  D(54,51,67,47)         55.045          D2E/DX2 =    0.0158             !
 ! D189  D(56,55,68,40)       -173.0406         D2E/DX2 =    0.0177             !
 ! D190  D(56,55,68,59)         65.8483         D2E/DX2 =    0.0148             !
 ! D191  D(56,55,68,63)        -54.755          D2E/DX2 =    0.0156             !
 ! D192  D(57,55,68,40)        -50.254          D2E/DX2 =    0.0174             !
 ! D193  D(57,55,68,59)       -171.3651         D2E/DX2 =    0.0152             !
 ! D194  D(57,55,68,63)         68.0316         D2E/DX2 =    0.0157             !
 ! D195  D(58,55,68,40)         65.8243         D2E/DX2 =    0.0177             !
 ! D196  D(58,55,68,59)        -55.2868         D2E/DX2 =    0.0152             !
 ! D197  D(58,55,68,63)       -175.8901         D2E/DX2 =    0.0158             !
 ! D198  D(60,59,68,40)        -55.4405         D2E/DX2 =    0.0166             !
 ! D199  D(60,59,68,55)         62.362          D2E/DX2 =    0.0162             !
 ! D200  D(60,59,68,63)       -177.6626         D2E/DX2 =    0.0143             !
 ! D201  D(61,59,68,40)         65.0175         D2E/DX2 =    0.0167             !
 ! D202  D(61,59,68,55)       -177.1801         D2E/DX2 =    0.0166             !
 ! D203  D(61,59,68,63)        -57.2046         D2E/DX2 =    0.0142             !
 ! D204  D(62,59,68,40)       -174.9438         D2E/DX2 =    0.0163             !
 ! D205  D(62,59,68,55)        -57.1414         D2E/DX2 =    0.0164             !
 ! D206  D(62,59,68,63)         62.8341         D2E/DX2 =    0.0141             !
 ! D207  D(64,63,68,40)        -63.2655         D2E/DX2 =    0.0168             !
 ! D208  D(64,63,68,55)       -179.8863         D2E/DX2 =    0.0175             !
 ! D209  D(64,63,68,59)         60.5033         D2E/DX2 =    0.0144             !
 ! D210  D(65,63,68,40)         56.5828         D2E/DX2 =    0.0171             !
 ! D211  D(65,63,68,55)        -60.038          D2E/DX2 =    0.0174             !
 ! D212  D(65,63,68,59)       -179.6484         D2E/DX2 =    0.0147             !
 ! D213  D(66,63,68,40)        177.0377         D2E/DX2 =    0.0169             !
 ! D214  D(66,63,68,55)         60.4169         D2E/DX2 =    0.0172             !
 ! D215  D(66,63,68,59)        -59.1935         D2E/DX2 =    0.0141             !
 ! D216  D(76,74,75,49)        140.1104         D2E/DX2 =    0.0326             !
 ! D217  D(76,74,75,79)        -27.343          D2E/DX2 =    0.0136             !
 ! D218  D(77,74,75,49)        -42.5531         D2E/DX2 =    0.0326             !
 ! D219  D(77,74,75,79)        149.9935         D2E/DX2 =    0.0404             !
 ! D220  D(75,74,77,38)         39.0599         D2E/DX2 =    0.0135             !
 ! D221  D(75,74,77,83)       -155.4486         D2E/DX2 =    0.0169             !
 ! D222  D(76,74,77,38)       -143.4802         D2E/DX2 =    0.0148             !
 ! D223  D(76,74,77,83)         22.0113         D2E/DX2 =    0.0108             !
 ! D224  D(49,75,79,78)       -146.5075         D2E/DX2 =    0.0023             !
 ! D225  D(74,75,79,78)          3.6601         D2E/DX2 =    0.0076             !
 ! D226  D(38,77,83,41)       -126.8885         D2E/DX2 =    0.0023             !
 ! D227  D(74,77,83,41)         61.8801         D2E/DX2 =    0.0023             !
 ! D228  D(80,78,79,75)         30.1734         D2E/DX2 =    0.0065             !
 ! D229  D(82,81,83,41)        -95.6243         D2E/DX2 =    0.0194             !
 --------------------------------------------------------------------------------
 Trust Radius=3.00D-01 FncErr=1.00D-07 GrdErr=1.00D-06 EigMax=2.50D+02 EigMin=1.00D-04
 Number of steps in this run=    484 maximum allowed number of steps=    498.
 GradGradGradGradGradGradGradGradGradGradGradGradGradGradGradGradGradGrad

 Leave Link  103 at Sat Mar 30 11:37:56 2024, MaxMem=  1744830464 cpu:               3.3 elap:               0.1
 (Enter /packages/apps/gaussian/g16/g16/l202.exe)
 Stoichiometry    C28H48N2O5
 Framework group  C1[X(C28H48N2O5)]
 Deg. of freedom   243
 Full point group                 C1      NOp   1
 Largest Abelian subgroup         C1      NOp   1
 Largest concise Abelian subgroup C1      NOp   1
                         Standard orientation:                         
 ---------------------------------------------------------------------
 Center     Atomic      Atomic             Coordinates (Angstroms)
 Number     Number       Type             X           Y           Z
 ---------------------------------------------------------------------
      1          6           0       -2.956192   -4.282397   -2.143771
      2          6           0       -2.846172   -3.547106   -0.807253
      3          1           0       -2.224875   -5.088861   -2.213338
      4          1           0       -3.952493   -4.714084   -2.255513
      5          1           0       -2.795347   -3.609705   -2.986360
      6          6           0       -3.836076   -2.370061   -0.739697
      7          1           0       -3.112020   -4.258988   -0.020310
      8          6           0       -4.042203   -1.831727    0.675888
      9          1           0       -4.828787   -2.408942    1.171303
     10          1           0       -3.139252   -1.991859    1.268062
     11          6           0       -4.405496   -0.344359    0.744883
     12          6           0       -4.731726    0.062037    2.190702
     13          6           0       -5.208329    1.502583    2.338194
     14          1           0       -5.470776    1.722313    3.373127
     15          1           0       -4.436293    2.208440    2.030369
     16          1           0       -6.091604    1.687369    1.722666
     17          6           0       -1.438245   -3.057999   -0.522729
     18          6           0       -0.731246   -2.313321   -1.467283
     19          6           0       -0.845528   -3.265273    0.718879
     20          6           0        0.525144   -1.805864   -1.183695
     21          1           0       -1.175997   -2.099549   -2.430765
     22          6           0        0.406117   -2.743559    1.013472
     23          1           0       -1.380276   -3.827014    1.475435
     24          6           0        1.116469   -2.022577    0.058057
     25          1           0        1.044804   -1.197583   -1.913896
     26          1           0        0.821996   -2.881165    2.004377
     27          6           0       -3.311729    0.531852    0.163328
     28          6           0       -3.610683    1.514320   -0.775118
     29          6           0       -1.982255    0.387737    0.562117
     30          6           0       -2.616346    2.334377   -1.292750
     31          1           0       -4.634062    1.638823   -1.107713
     32          6           0       -0.981419    1.185844    0.038313
     33          1           0       -1.707820   -0.375130    1.279315
     34          6           0       -1.295949    2.181617   -0.889259
     35          1           0       -2.872428    3.083349   -2.033875
     36          1           0        0.052843    1.052294    0.341954
     37          6           0       -0.192164    3.016448   -1.460010
     38          1           0        0.711794    2.428808   -1.530990
     39          1           0       -0.465052    3.441978   -2.427250
     40          6           0        2.454009   -1.412827    0.347877
     41          1           0        2.655460   -0.623025   -0.364187
     42          1           0        2.526983   -1.019216    1.359669
     43          6           0        1.577510    4.629362   -1.058164
     44          1           0        1.884519    5.507371   -0.494910
     45          1           0        2.245657    3.784042   -0.885231
     46          1           0        1.529815    4.862035   -2.119678
     47          6           0        0.294077    3.876849    0.859508
     48          1           0       -0.710875    3.671463    1.218479
     49          1           0        0.946835    3.006847    1.025149
     50          1           0        0.696482    4.749926    1.368734
     51          6           0       -0.749160    5.323872   -0.786209
     52          1           0       -0.745302    5.632539   -1.829488
     53          1           0       -1.739421    4.975434   -0.504623
     54          1           0       -0.457076    6.158495   -0.152712
     55          6           0        4.864117   -1.583189    0.585236
     56          1           0        5.740541   -2.182933    0.349096
     57          1           0        4.860870   -0.620591    0.075845
     58          1           0        4.783829   -1.387298    1.650979
     59          6           0        3.533780   -3.564546    1.008776
     60          1           0        3.404975   -3.259346    2.043602
     61          1           0        2.681336   -4.153886    0.680702
     62          1           0        4.449002   -4.143982    0.904229
     63          6           0        3.767890   -2.722314   -1.269959
     64          1           0        2.880011   -3.274671   -1.564743
     65          1           0        3.854297   -1.798948   -1.850961
     66          1           0        4.651607   -3.345401   -1.389969
     67          7           0        0.216762    4.216578   -0.600312
     68          7           0        3.646242   -2.348555    0.166302
     69          1           0       -4.798284   -2.683963   -1.152024
     70          1           0       -3.463643   -1.578085   -1.396088
     71          1           0       -3.843158   -0.096680    2.808167
     72          1           0       -5.498916   -0.615763    2.572895
     73          1           0       -5.307230   -0.182485    0.143932
     74          6           0        2.826768    1.532357    0.515191
     75          8           0        2.134910    1.598611    1.591698
     76          8           0        4.085310    1.366293    0.495730
     77          8           0        2.167646    1.591292   -0.622737
     78          8           0        3.759848    0.135507    3.146163
     79          1           0        3.023761    0.676006    2.768440
     80          1           0        4.469973    0.521410    2.623357
     81          8           0        3.704101    0.393353   -2.300126
     82          1           0        4.528447    0.696847   -1.907314
     83          1           0        3.039835    0.883946   -1.722831
 ---------------------------------------------------------------------
 Rotational constants (GHZ):           0.1225927           0.0976048           0.0664597
 Leave Link  202 at Sat Mar 30 11:37:57 2024, MaxMem=  1744830464 cpu:               4.3 elap:               0.2
 (Enter /packages/apps/gaussian/g16/g16/l301.exe)
 Standard basis: 6-311+G(2d,2p) (5D, 7F)
 Ernie: Thresh=  0.10000D-02 Tol=  0.10000D-05 Strict=F.
 There are  1447 symmetry adapted cartesian basis functions of A   symmetry.
 There are  1377 symmetry adapted basis functions of A   symmetry.
  1377 basis functions,  1998 primitive gaussians,  1447 cartesian basis functions
   135 alpha electrons      135 beta electrons
       nuclear repulsion energy      4287.7616102491 Hartrees.
 IExCor= 4639 DFT=T Ex+Corr=wB97XD ExCW=0 ScaHFX=  1.000000
 ScaDFX=  1.000000  1.000000  1.000000  1.000000 ScalE2=  1.000000  1.000000
 IRadAn=      5 IRanWt=     -1 IRanGd=            0 ICorTp=0 IEmpDi=121
 HFx  wShort=  0.000000 wLong=  0.200000 cFull=  0.222036 cShort=  0.000000 cLong=  0.777964
 DFx  wShort=  0.000000 wLong=  0.200000 cFull=  0.000000 cShort=  0.000000 cLong=  1.000000
 NAtoms=   83 NActive=   83 NUniq=   83 SFac= 1.00D+00 NAtFMM=   60 NAOKFM=T Big=T
 Integral buffers will be    131072 words long.
 Raffenetti 2 integral format.
 Two-electron integral symmetry is turned on.
 R6Disp:  Grimme-D2 Dispersion energy=       -0.0949315632 Hartrees.
 Nuclear repulsion after empirical dispersion term =     4287.6666786860 Hartrees.
 Leave Link  301 at Sat Mar 30 11:37:57 2024, MaxMem=  1744830464 cpu:               1.5 elap:               0.1
 (Enter /packages/apps/gaussian/g16/g16/l302.exe)
 NPDir=0 NMtPBC=     1 NCelOv=     1 NCel=       1 NClECP=     1 NCelD=      1
         NCelK=      1 NCelE2=     1 NClLst=     1 CellRange=     0.0.
 One-electron integrals computed using PRISM.
 One-electron integral symmetry used in STVInt
 NBasis=  1377 RedAO= T EigKep=  1.03D-06  NBF=  1377
 NBsUse=  1369 1.00D-06 EigRej=  7.27D-07 NBFU=  1369
 Precomputing XC quadrature grid using
 IXCGrd= 4 IRadAn=           5 IRanWt=          -1 IRanGd=           0 AccXCQ= 0.00D+00.
 Generated NRdTot=       0 NPtTot=           0 NUsed=           0 NTot=          32
 NSgBfM=  1431  1431  1431  1431  1431 MxSgAt=    83 MxSgA2=    83.
 Leave Link  302 at Sat Mar 30 11:38:01 2024, MaxMem=  1744830464 cpu:             158.1 elap:               4.2
 (Enter /packages/apps/gaussian/g16/g16/l303.exe)
 DipDrv:  MaxL=1.
 Leave Link  303 at Sat Mar 30 11:38:02 2024, MaxMem=  1744830464 cpu:              13.6 elap:               0.4
 (Enter /packages/apps/gaussian/g16/g16/l401.exe)
 Initial guess from the checkpoint file:  "2water-v2.chk"
 B after Tr=     0.000000   -0.000000    0.000000
         Rot=   -0.000001    0.000012    1.000000    0.000001 Ang= 180.00 deg.
 Guess basis will be translated and rotated to current coordinates.
 JPrj=2 DoOrth=T DoCkMO=T.
 Leave Link  401 at Sat Mar 30 11:38:05 2024, MaxMem=  1744830464 cpu:             138.0 elap:               3.6
 (Enter /packages/apps/gaussian/g16/g16/l502.exe)
 Integral symmetry usage will be decided dynamically.
 Closed shell SCF:
 Using DIIS extrapolation, IDIIS=  1040.
 NGot=  1744830464 LenX=  1740571677 LenY=  1738476421
 Requested convergence on RMS density matrix=1.00D-08 within 128 cycles.
 Requested convergence on MAX density matrix=1.00D-06.
 Requested convergence on             energy=1.00D-06.
 No special actions if energy rises.
 Fock matrices will be formed incrementally for  20 cycles.

 Cycle   1  Pass 1  IDiag  1:
 FoFJK:  IHMeth= 1 ICntrl=       0 DoSepK=T KAlg= 0 I1Cent=           0 FoldK=F
 IRaf=         1 NMat=       1 IRICut=       1 DoRegI=T DoRafI=F ISym2E= 0 IDoP0=0 IntGTp=1.
 FoFCou: FMM=T IPFlag=           0 FMFlag=      100000 FMFlg1=        2001
         NFxFlg=           0 DoJE=T BraDBF=F KetDBF=F FulRan=T
         wScrn=  0.000000 ICntrl=       500 IOpCl=  0 I1Cent=           0 NGrid=           0
         NMat0=    1 NMatS0=      1 NMatT0=    0 NMatD0=    1 NMtDS0=    0 NMtDT0=    0
 Symmetry not used in FoFCou.
 FMM levels:  10  Number of levels for PrismC:   9
 E= -1581.52780794593    
 DIIS: error= 1.01D-05 at cycle   1 NSaved=   1.
 NSaved= 1 IEnMin= 1 EnMin= -1581.52780794593     IErMin= 1 ErrMin= 1.01D-05
 ErrMax= 1.01D-05  0.00D+00 EMaxC= 1.00D-01 BMatC= 8.41D-07 BMatP= 8.41D-07
 IDIUse=1 WtCom= 1.00D+00 WtEn= 0.00D+00
 Coeff-Com:  0.100D+01
 Coeff:      0.100D+01
 Gap=     0.269 Goal=   None    Shift=    0.000
 RMSDP=1.14D-05 MaxDP=1.34D-03              OVMax= 1.53D-04

 Cycle   2  Pass 1  IDiag  1:
 RMSU=  1.12D-05    CP:  1.00D+00
 E= -1581.52780866964     Delta-E=       -0.000000723702 Rises=F Damp=F
 DIIS: error= 5.30D-06 at cycle   2 NSaved=   2.
 NSaved= 2 IEnMin= 2 EnMin= -1581.52780866964     IErMin= 2 ErrMin= 5.30D-06
 ErrMax= 5.30D-06  0.00D+00 EMaxC= 1.00D-01 BMatC= 5.09D-08 BMatP= 8.41D-07
 IDIUse=1 WtCom= 1.00D+00 WtEn= 0.00D+00
 Coeff-Com:  0.169D-01 0.983D+00
 Coeff:      0.169D-01 0.983D+00
 Gap=     0.269 Goal=   None    Shift=    0.000
 RMSDP=1.71D-06 MaxDP=2.01D-04 DE=-7.24D-07 OVMax= 7.42D-05

 Cycle   3  Pass 1  IDiag  1:
 RMSU=  1.49D-06    CP:  1.00D+00  1.06D+00
 E= -1581.52780869366     Delta-E=       -0.000000024019 Rises=F Damp=F
 DIIS: error= 5.20D-06 at cycle   3 NSaved=   3.
 NSaved= 3 IEnMin= 3 EnMin= -1581.52780869366     IErMin= 3 ErrMin= 5.20D-06
 ErrMax= 5.20D-06  0.00D+00 EMaxC= 1.00D-01 BMatC= 4.96D-08 BMatP= 5.09D-08
 IDIUse=1 WtCom= 1.00D+00 WtEn= 0.00D+00
 Coeff-Com: -0.479D-01 0.517D+00 0.531D+00
 Coeff:     -0.479D-01 0.517D+00 0.531D+00
 Gap=     0.269 Goal=   None    Shift=    0.000
 RMSDP=5.73D-07 MaxDP=8.28D-05 DE=-2.40D-08 OVMax= 3.75D-05

 Cycle   4  Pass 1  IDiag  1:
 RMSU=  4.02D-07    CP:  1.00D+00  1.08D+00  7.89D-01
 E= -1581.52780872669     Delta-E=       -0.000000033035 Rises=F Damp=F
 DIIS: error= 5.10D-07 at cycle   4 NSaved=   4.
 NSaved= 4 IEnMin= 4 EnMin= -1581.52780872669     IErMin= 4 ErrMin= 5.10D-07
 ErrMax= 5.10D-07  0.00D+00 EMaxC= 1.00D-01 BMatC= 9.05D-10 BMatP= 4.96D-08
 IDIUse=1 WtCom= 1.00D+00 WtEn= 0.00D+00
 Coeff-Com: -0.882D-02 0.430D-02 0.911D-01 0.913D+00
 Coeff:     -0.882D-02 0.430D-02 0.911D-01 0.913D+00
 Gap=     0.269 Goal=   None    Shift=    0.000
 RMSDP=1.68D-07 MaxDP=1.96D-05 DE=-3.30D-08 OVMax= 1.04D-05

 Cycle   5  Pass 1  IDiag  1:
 RMSU=  1.63D-07    CP:  1.00D+00  1.08D+00  8.06D-01  1.06D+00
 E= -1581.52780872776     Delta-E=       -0.000000001074 Rises=F Damp=F
 DIIS: error= 3.98D-07 at cycle   5 NSaved=   5.
 NSaved= 5 IEnMin= 5 EnMin= -1581.52780872776     IErMin= 5 ErrMin= 3.98D-07
 ErrMax= 3.98D-07  0.00D+00 EMaxC= 1.00D-01 BMatC= 3.69D-10 BMatP= 9.05D-10
 IDIUse=1 WtCom= 1.00D+00 WtEn= 0.00D+00
 Coeff-Com:  0.293D-03-0.512D-01-0.915D-02 0.463D+00 0.597D+00
 Coeff:      0.293D-03-0.512D-01-0.915D-02 0.463D+00 0.597D+00
 Gap=     0.269 Goal=   None    Shift=    0.000
 RMSDP=8.60D-08 MaxDP=9.23D-06 DE=-1.07D-09 OVMax= 4.08D-06

 Cycle   6  Pass 1  IDiag  1:
 RMSU=  4.95D-08    CP:  1.00D+00  1.08D+00  8.49D-01  1.12D+00  9.91D-01
 E= -1581.52780872817     Delta-E=       -0.000000000407 Rises=F Damp=F
 DIIS: error= 1.43D-07 at cycle   6 NSaved=   6.
 NSaved= 6 IEnMin= 6 EnMin= -1581.52780872817     IErMin= 6 ErrMin= 1.43D-07
 ErrMax= 1.43D-07  0.00D+00 EMaxC= 1.00D-01 BMatC= 3.89D-11 BMatP= 3.69D-10
 IDIUse=1 WtCom= 1.00D+00 WtEn= 0.00D+00
 Coeff-Com:  0.168D-02-0.256D-01-0.204D-01 0.665D-01 0.268D+00 0.710D+00
 Coeff:      0.168D-02-0.256D-01-0.204D-01 0.665D-01 0.268D+00 0.710D+00
 Gap=     0.269 Goal=   None    Shift=    0.000
 RMSDP=3.58D-08 MaxDP=5.60D-06 DE=-4.07D-10 OVMax= 1.73D-06

 Cycle   7  Pass 1  IDiag  1:
 RMSU=  2.43D-08    CP:  1.00D+00  1.08D+00  8.56D-01  1.15D+00  1.09D+00
                    CP:  1.13D+00
 E= -1581.52780872817     Delta-E=       -0.000000000004 Rises=F Damp=F
 DIIS: error= 3.75D-08 at cycle   7 NSaved=   7.
 NSaved= 7 IEnMin= 7 EnMin= -1581.52780872817     IErMin= 7 ErrMin= 3.75D-08
 ErrMax= 3.75D-08  0.00D+00 EMaxC= 1.00D-01 BMatC= 2.27D-12 BMatP= 3.89D-11
 IDIUse=1 WtCom= 1.00D+00 WtEn= 0.00D+00
 Coeff-Com:  0.290D-03 0.456D-05-0.326D-02-0.336D-01-0.112D-01 0.125D+00
 Coeff-Com:  0.922D+00
 Coeff:      0.290D-03 0.456D-05-0.326D-02-0.336D-01-0.112D-01 0.125D+00
 Coeff:      0.922D+00
 Gap=     0.269 Goal=   None    Shift=    0.000
 RMSDP=1.88D-08 MaxDP=2.97D-06 DE=-3.64D-12 OVMax= 1.34D-06

 Cycle   8  Pass 1  IDiag  1:
 RMSU=  7.93D-09    CP:  1.00D+00  1.08D+00  8.58D-01  1.15D+00  1.15D+00
                    CP:  1.31D+00  1.29D+00
 E= -1581.52780872821     Delta-E=       -0.000000000036 Rises=F Damp=F
 DIIS: error= 1.34D-08 at cycle   8 NSaved=   8.
 NSaved= 8 IEnMin= 8 EnMin= -1581.52780872821     IErMin= 8 ErrMin= 1.34D-08
 ErrMax= 1.34D-08  0.00D+00 EMaxC= 1.00D-01 BMatC= 6.88D-13 BMatP= 2.27D-12
 IDIUse=1 WtCom= 1.00D+00 WtEn= 0.00D+00
 Coeff-Com: -0.171D-03 0.445D-02 0.227D-02-0.242D-01-0.510D-01-0.773D-01
 Coeff-Com:  0.372D+00 0.774D+00
 Coeff:     -0.171D-03 0.445D-02 0.227D-02-0.242D-01-0.510D-01-0.773D-01
 Coeff:      0.372D+00 0.774D+00
 Gap=     0.269 Goal=   None    Shift=    0.000
 RMSDP=8.01D-09 MaxDP=1.19D-06 DE=-3.64D-11 OVMax= 6.00D-07

 Cycle   9  Pass 1  IDiag  1:
 RMSU=  2.58D-09    CP:  1.00D+00  1.08D+00  8.58D-01  1.15D+00  1.18D+00
                    CP:  1.37D+00  1.48D+00  1.32D+00
 E= -1581.52780872824     Delta-E=       -0.000000000031 Rises=F Damp=F
 DIIS: error= 9.15D-09 at cycle   9 NSaved=   9.
 NSaved= 9 IEnMin= 9 EnMin= -1581.52780872824     IErMin= 9 ErrMin= 9.15D-09
 ErrMax= 9.15D-09  0.00D+00 EMaxC= 1.00D-01 BMatC= 9.92D-14 BMatP= 6.88D-13
 IDIUse=1 WtCom= 1.00D+00 WtEn= 0.00D+00
 Coeff-Com: -0.101D-03 0.141D-02 0.127D-02-0.173D-02-0.140D-01-0.447D-01
 Coeff-Com: -0.384D-01 0.243D+00 0.853D+00
 Coeff:     -0.101D-03 0.141D-02 0.127D-02-0.173D-02-0.140D-01-0.447D-01
 Coeff:     -0.384D-01 0.243D+00 0.853D+00
 Gap=     0.269 Goal=   None    Shift=    0.000
 RMSDP=2.62D-09 MaxDP=3.79D-07 DE=-3.09D-11 OVMax= 3.52D-07

 SCF Done:  E(RwB97XD) =  -1581.52780873     A.U. after    9 cycles
            NFock=  9  Conv=0.26D-08     -V/T= 2.0041
 KE= 1.575038597157D+03 PE=-1.226308096784D+04 EE= 4.818847883269D+03
 Leave Link  502 at Sat Mar 30 11:44:19 2024, MaxMem=  1744830464 cpu:           14312.3 elap:             373.9
 (Enter /packages/apps/gaussian/g16/g16/l601.exe)
 Copying SCF densities to generalized density rwf, IOpCl= 0 IROHF=0.

 **********************************************************************

            Population analysis using the SCF density.

 **********************************************************************

 Orbital symmetries:
       Occupied  (A) (A) (A) (A) (A) (A) (A) (A) (A) (A) (A) (A)
                 (A) (A) (A) (A) (A) (A) (A) (A) (A) (A) (A) (A)
                 (A) (A) (A) (A) (A) (A) (A) (A) (A) (A) (A) (A)
                 (A) (A) (A) (A) (A) (A) (A) (A) (A) (A) (A) (A)
                 (A) (A) (A) (A) (A) (A) (A) (A) (A) (A) (A) (A)
                 (A) (A) (A) (A) (A) (A) (A) (A) (A) (A) (A) (A)
                 (A) (A) (A) (A) (A) (A) (A) (A) (A) (A) (A) (A)
                 (A) (A) (A) (A) (A) (A) (A) (A) (A) (A) (A) (A)
                 (A) (A) (A) (A) (A) (A) (A) (A) (A) (A) (A) (A)
                 (A) (A) (A) (A) (A) (A) (A) (A) (A) (A) (A) (A)
                 (A) (A) (A) (A) (A) (A) (A) (A) (A) (A) (A) (A)
                 (A) (A) (A)
       Virtual   (A) (A) (A) (A) (A) (A) (A) (A) (A) (A) (A) (A)
                 (A) (A) (A) (A) (A) (A) (A) (A) (A) (A) (A) (A)
                 (A) (A) (A) (A) (A) (A) (A) (A) (A) (A) (A) (A)
                 (A) (A) (A) (A) (A) (A) (A) (A) (A) (A) (A) (A)
                 (A) (A) (A) (A) (A) (A) (A) (A) (A) (A) (A) (A)
                 (A) (A) (A) (A) (A) (A) (A) (A) (A) (A) (A) (A)
                 (A) (A) (A) (A) (A) (A) (A) (A) (A) (A) (A) (A)
                 (A) (A) (A) (A) (A) (A) (A) (A) (A) (A) (A) (A)
                 (A) (A) (A) (A) (A) (A) (A) (A) (A) (A) (A) (A)
                 (A) (A) (A) (A) (A) (A) (A) (A) (A) (A) (A) (A)
                 (A) (A) (A) (A) (A) (A) (A) (A) (A) (A) (A) (A)
                 (A) (A) (A) (A) (A) (A) (A) (A) (A) (A) (A) (A)
                 (A) (A) (A) (A) (A) (A) (A) (A) (A) (A) (A) (A)
                 (A) (A) (A) (A) (A) (A) (A) (A) (A) (A) (A) (A)
                 (A) (A) (A) (A) (A) (A) (A) (A) (A) (A) (A) (A)
                 (A) (A) (A) (A) (A) (A) (A) (A) (A) (A) (A) (A)
                 (A) (A) (A) (A) (A) (A) (A) (A) (A) (A) (A) (A)
                 (A) (A) (A) (A) (A) (A) (A) (A) (A) (A) (A) (A)
                 (A) (A) (A) (A) (A) (A) (A) (A) (A) (A) (A) (A)
                 (A) (A) (A) (A) (A) (A) (A) (A) (A) (A) (A) (A)
                 (A) (A) (A) (A) (A) (A) (A) (A) (A) (A) (A) (A)
                 (A) (A) (A) (A) (A) (A) (A) (A) (A) (A) (A) (A)
                 (A) (A) (A) (A) (A) (A) (A) (A) (A) (A) (A) (A)
                 (A) (A) (A) (A) (A) (A) (A) (A) (A) (A) (A) (A)
                 (A) (A) (A) (A) (A) (A) (A) (A) (A) (A) (A) (A)
                 (A) (A) (A) (A) (A) (A) (A) (A) (A) (A) (A) (A)
                 (A) (A) (A) (A) (A) (A) (A) (A) (A) (A) (A) (A)
                 (A) (A) (A) (A) (A) (A) (A) (A) (A) (A) (A) (A)
                 (A) (A) (A) (A) (A) (A) (A) (A) (A) (A) (A) (A)
                 (A) (A) (A) (A) (A) (A) (A) (A) (A) (A) (A) (A)
                 (A) (A) (A) (A) (A) (A) (A) (A) (A) (A) (A) (A)
                 (A) (A) (A) (A) (A) (A) (A) (A) (A) (A) (A) (A)
                 (A) (A) (A) (A) (A) (A) (A) (A) (A) (A) (A) (A)
                 (A) (A) (A) (A) (A) (A) (A) (A) (A) (A) (A) (A)
[...]
 Alpha virt. eigenvalues --    1.53557   1.54243   1.54712   1.54823   1.55355
 Alpha virt. eigenvalues --    1.55698   1.55854   1.56029   1.56153   1.56511
 Alpha virt. eigenvalues --    1.56701   1.57235   1.57566   1.57672   1.58259
 Alpha virt. eigenvalues --    1.58335   1.58618   1.58805   1.59465   1.59496
 Alpha virt. eigenvalues --    1.59992   1.60119   1.60396   1.60756   1.60961
 Alpha virt. eigenvalues --    1.61408   1.61948   1.61990   1.62270   1.62631
 Alpha virt. eigenvalues --    1.63123   1.63231   1.63622   1.63889   1.64240
 Alpha virt. eigenvalues --    1.64529   1.64713   1.65094   1.65595   1.65891
 Alpha virt. eigenvalues --    1.66111   1.66365   1.66521   1.66922   1.67346
 Alpha virt. eigenvalues --    1.67586   1.67816   1.68458   1.68627   1.69234
 Alpha virt. eigenvalues --    1.69362   1.69749   1.69884   1.70009   1.70826
 Alpha virt. eigenvalues --    1.71135   1.71260   1.71428   1.71776   1.71926
 Alpha virt. eigenvalues --    1.72732   1.73031   1.73337   1.73446   1.73702
 Alpha virt. eigenvalues --    1.74315   1.74595   1.75292   1.75543   1.76268
 Alpha virt. eigenvalues --    1.76679   1.77059   1.77630   1.77737   1.77957
 Alpha virt. eigenvalues --    1.78373   1.78476   1.79764   1.80008   1.80341
 Alpha virt. eigenvalues --    1.80886   1.81217   1.82123   1.82374   1.83063
 Alpha virt. eigenvalues --    1.83368   1.83868   1.84183   1.84505   1.85245
 Alpha virt. eigenvalues --    1.85482   1.85928   1.86625   1.87244   1.87806
 Alpha virt. eigenvalues --    1.88400   1.88671   1.89505   1.89856   1.90343
 Alpha virt. eigenvalues --    1.91383   1.91890   1.92202   1.92642   1.92965
 Alpha virt. eigenvalues --    1.93565   1.93907   1.94029   1.94861   1.95526
 Alpha virt. eigenvalues --    1.96384   1.97070   1.97391   1.98122   1.98799
 Alpha virt. eigenvalues --    1.99200   2.00066   2.00553   2.01583   2.01712
 Alpha virt. eigenvalues --    2.02783   2.04017   2.04480   2.05495   2.05695
 Alpha virt. eigenvalues --    2.06661   2.06925   2.08003   2.08221   2.08998
 Alpha virt. eigenvalues --    2.09478   2.10723   2.11271   2.11782   2.12804
 Alpha virt. eigenvalues --    2.13490   2.14085   2.15153   2.15882   2.17282
 Alpha virt. eigenvalues --    2.18660   2.19611   2.20129   2.20971   2.22312
 Alpha virt. eigenvalues --    2.24072   2.24161   2.25325   2.26067   2.27158
 Alpha virt. eigenvalues --    2.27866   2.28842   2.29562   2.31604   2.36432
 Alpha virt. eigenvalues --    2.39261   2.43969   2.46964   2.48585   2.50011
 Alpha virt. eigenvalues --    2.52792   2.54830   2.59920   2.60939   2.68571
 Alpha virt. eigenvalues --    2.68928   2.72296   2.75453   2.78179   2.81486
 Alpha virt. eigenvalues --    2.84260   2.84612   2.84681   2.87502   2.88824
 Alpha virt. eigenvalues --    2.90044   2.90827   2.91268   2.92185   2.92702
 Alpha virt. eigenvalues --    2.94415   2.95613   2.96115   2.96417   2.96742
 Alpha virt. eigenvalues --    2.97629   2.97801   2.98511   2.98972   3.00104
 Alpha virt. eigenvalues --    3.00556   3.00995   3.01657   3.02316   3.02624
 Alpha virt. eigenvalues --    3.03189   3.04295   3.05012   3.05774   3.05925
 Alpha virt. eigenvalues --    3.07109   3.07995   3.08852   3.09666   3.09860
 Alpha virt. eigenvalues --    3.11055   3.12495   3.12871   3.14065   3.14959
 Alpha virt. eigenvalues --    3.15202   3.15494   3.16697   3.17214   3.18737
 Alpha virt. eigenvalues --    3.18818   3.19525   3.20173   3.20548   3.21638
 Alpha virt. eigenvalues --    3.21804   3.22551   3.23071   3.23317   3.24000
 Alpha virt. eigenvalues --    3.24219   3.25407   3.25553   3.26149   3.26592
 Alpha virt. eigenvalues --    3.26816   3.27501   3.28991   3.29469   3.29772
 Alpha virt. eigenvalues --    3.30093   3.30544   3.31304   3.31343   3.32295
 Alpha virt. eigenvalues --    3.32567   3.33495   3.33760   3.34044   3.34345
 Alpha virt. eigenvalues --    3.35082   3.35575   3.35954   3.36380   3.36962
 Alpha virt. eigenvalues --    3.37145   3.37750   3.38510   3.39024   3.39795
 Alpha virt. eigenvalues --    3.40271   3.40969   3.41105   3.41481   3.42079
 Alpha virt. eigenvalues --    3.42568   3.42650   3.43285   3.43649   3.44763
 Alpha virt. eigenvalues --    3.44951   3.46116   3.46338   3.47093   3.47444
 Alpha virt. eigenvalues --    3.47747   3.47908   3.48139   3.48478   3.49129
 Alpha virt. eigenvalues --    3.49433   3.49882   3.50307   3.50545   3.50828
 Alpha virt. eigenvalues --    3.51149   3.51429   3.51796   3.52737   3.53315
 Alpha virt. eigenvalues --    3.53832   3.54118   3.54208   3.54761   3.54935
 Alpha virt. eigenvalues --    3.55317   3.55947   3.56496   3.56719   3.57167
 Alpha virt. eigenvalues --    3.57289   3.58000   3.58758   3.59186   3.59373
 Alpha virt. eigenvalues --    3.59879   3.60213   3.60580   3.61335   3.61811
 Alpha virt. eigenvalues --    3.61903   3.62742   3.63145   3.63460   3.63820
 Alpha virt. eigenvalues --    3.64177   3.64651   3.64930   3.65390   3.65960
 Alpha virt. eigenvalues --    3.66854   3.67141   3.67709   3.67980   3.68232
 Alpha virt. eigenvalues --    3.68751   3.69105   3.69241   3.69398   3.69632
 Alpha virt. eigenvalues --    3.69662   3.70900   3.71214   3.71325   3.71493
 Alpha virt. eigenvalues --    3.72028   3.72144   3.72460   3.72708   3.73161
 Alpha virt. eigenvalues --    3.73744   3.73799   3.74313   3.75060   3.75488
 Alpha virt. eigenvalues --    3.75699   3.76080   3.76806   3.77117   3.77712
 Alpha virt. eigenvalues --    3.78037   3.78421   3.79153   3.79411   3.79667
 Alpha virt. eigenvalues --    3.80105   3.80264   3.80329   3.81224   3.81522
 Alpha virt. eigenvalues --    3.82011   3.82080   3.82937   3.83306   3.83919
 Alpha virt. eigenvalues --    3.84421   3.84781   3.84904   3.85694   3.85976
 Alpha virt. eigenvalues --    3.86388   3.86733   3.87116   3.87620   3.88771
 Alpha virt. eigenvalues --    3.88997   3.89475   3.89514   3.90132   3.90488
 Alpha virt. eigenvalues --    3.90847   3.91406   3.91812   3.92054   3.92675
 Alpha virt. eigenvalues --    3.92817   3.93344   3.94136   3.94309   3.95140
 Alpha virt. eigenvalues --    3.95403   3.95541   3.95885   3.96694   3.97543
 Alpha virt. eigenvalues --    3.98227   3.98500   3.98882   3.99490   3.99923
 Alpha virt. eigenvalues --    4.00202   4.00866   4.01202   4.01785   4.02320
 Alpha virt. eigenvalues --    4.02628   4.02790   4.03668   4.03826   4.04249
 Alpha virt. eigenvalues --    4.04346   4.04945   4.05815   4.05899   4.06679
 Alpha virt. eigenvalues --    4.06840   4.07367   4.07790   4.08624   4.08860
 Alpha virt. eigenvalues --    4.09072   4.09463   4.10091   4.10270   4.10866
 Alpha virt. eigenvalues --    4.10958   4.11506   4.11817   4.12448   4.12776
 Alpha virt. eigenvalues --    4.13338   4.13808   4.13866   4.14353   4.14971
 Alpha virt. eigenvalues --    4.15304   4.15367   4.15974   4.16520   4.16753
 Alpha virt. eigenvalues --    4.17048   4.17568   4.17805   4.18074   4.18578
 Alpha virt. eigenvalues --    4.18615   4.18775   4.19333   4.19641   4.20161
 Alpha virt. eigenvalues --    4.20503   4.20815   4.21263   4.22009   4.22148
 Alpha virt. eigenvalues --    4.22383   4.22787   4.22864   4.23033   4.23667
 Alpha virt. eigenvalues --    4.24317   4.24526   4.25099   4.25293   4.25696
 Alpha virt. eigenvalues --    4.25992   4.26805   4.27042   4.27493   4.27644
 Alpha virt. eigenvalues --    4.27898   4.28350   4.28652   4.29552   4.30088
 Alpha virt. eigenvalues --    4.31070   4.31198   4.31435   4.31966   4.32566
 Alpha virt. eigenvalues --    4.32952   4.33620   4.33724   4.34496   4.34646
 Alpha virt. eigenvalues --    4.35227   4.35289   4.35751   4.36671   4.37052
 Alpha virt. eigenvalues --    4.37718   4.37995   4.38310   4.38457   4.39127
 Alpha virt. eigenvalues --    4.39544   4.40261   4.40370   4.41197   4.41353
 Alpha virt. eigenvalues --    4.41693   4.42463   4.42947   4.43541   4.43658
 Alpha virt. eigenvalues --    4.44235   4.44244   4.45373   4.45835   4.46200
 Alpha virt. eigenvalues --    4.46650   4.46840   4.47271   4.47862   4.47933
 Alpha virt. eigenvalues --    4.48474   4.48696   4.49257   4.49592   4.50447
 Alpha virt. eigenvalues --    4.50715   4.51632   4.52591   4.52895   4.54394
 Alpha virt. eigenvalues --    4.55144   4.55696   4.56424   4.57312   4.57724
 Alpha virt. eigenvalues --    4.58890   4.59307   4.60522   4.62576   4.63581
 Alpha virt. eigenvalues --    4.65096   4.65825   4.65989   4.66720   4.68670
 Alpha virt. eigenvalues --    4.69402   4.69883   4.70749   4.71882   4.72367
 Alpha virt. eigenvalues --    4.74444   4.75867   4.78054   4.79127   4.80157
 Alpha virt. eigenvalues --    4.83212   4.83702   4.87749   4.88559   4.98958
 Alpha virt. eigenvalues --    5.00150   5.01850   5.03262   5.03553   5.04188
 Alpha virt. eigenvalues --    5.04758   5.05213   5.05738   5.06175   5.06411
 Alpha virt. eigenvalues --    5.11719   5.12315   5.13760   5.13941   5.14932
 Alpha virt. eigenvalues --    5.15038   5.15801   5.16466   5.16654   5.17149
 Alpha virt. eigenvalues --    5.17622   5.18047   5.18548   5.19333   5.19471
 Alpha virt. eigenvalues --    5.20286   5.20778   5.21532   5.22322   5.22767
 Alpha virt. eigenvalues --    5.23489   5.23923   5.25844   5.26166   5.26933
 Alpha virt. eigenvalues --    5.30855   5.31780   5.32971   5.34281   5.35235
 Alpha virt. eigenvalues --    5.36603   5.41110   5.41507   5.46010   5.46993
 Alpha virt. eigenvalues --    5.47491   5.47971   5.48404   5.48767   5.50096
 Alpha virt. eigenvalues --    5.50833   5.55770   5.57732   5.64911   5.75532
 Alpha virt. eigenvalues --    5.77503   5.79184   5.81286   5.84904   5.86216
 Alpha virt. eigenvalues --    5.87548   5.88871   5.89613   5.91832   6.24025
 Alpha virt. eigenvalues --    6.31201   6.32322   6.35675   7.06708   7.09004
 Alpha virt. eigenvalues --    7.10599   7.11250   7.15107   7.16853   7.19244
 Alpha virt. eigenvalues --    7.21307   7.22831   7.24800   7.29074   7.31597
 Alpha virt. eigenvalues --    7.33365   7.37196   7.44671   7.47726   7.50957
 Alpha virt. eigenvalues --    7.53064   7.60027   7.63691   7.64882   7.69186
 Alpha virt. eigenvalues --    7.71953   7.75670   7.76506  23.89915  23.91749
 Alpha virt. eigenvalues --   24.04775  24.05029  24.08077  24.10586  24.11727
 Alpha virt. eigenvalues --   24.13670  24.17085  24.17709  24.18499  24.19043
 Alpha virt. eigenvalues --   24.20294  24.21320  24.21878  24.22026  24.22262
 Alpha virt. eigenvalues --   24.22957  24.23745  24.32129  24.33619  24.33659
 Alpha virt. eigenvalues --   24.35164  24.37114  24.37400  24.44044  24.47184
 Alpha virt. eigenvalues --   24.47936  35.60773  35.65185  50.18394  50.19815
 Alpha virt. eigenvalues --   50.32988  50.34133  50.38394
          Condensed to atoms (all electrons):
 Mulliken charges:
               1
     1  C   -0.532598
     2  C    0.032244
     3  H    0.130125
     4  H    0.126237
     5  H    0.127399
     6  C   -0.292779
     7  H    0.113493
     8  C   -0.294030
     9  H    0.124242
    10  H    0.116486
    11  C    0.141151
    12  C   -0.187253
    13  C   -0.478439
    14  H    0.121737
    15  H    0.122306
    16  H    0.110413
    17  C    0.477817
    18  C   -0.298717
    19  C   -0.408713
    20  C   -0.326232
    21  H    0.122714
    22  C   -0.363922
    23  H    0.131166
    24  C    0.190135
    25  H    0.176849
    26  H    0.143104
    27  C    0.325358
    28  C   -0.343116
    29  C   -0.160860
    30  C   -0.275383
    31  H    0.129735
    32  C   -0.219200
    33  H    0.134847
    34  C   -0.045968
    35  H    0.132269
    36  H    0.226251
    37  C   -0.442324
    38  H    0.327335
    39  H    0.159031
    40  C   -0.478607
    41  H    0.147405
    42  H    0.240931
    43  C   -0.192692
    44  H    0.137550
    45  H    0.251183
    46  H    0.136092
    47  C   -0.316104
    48  H    0.150188
    49  H    0.274190
    50  H    0.146209
    51  C   -0.190959
    52  H    0.157044
    53  H    0.180487
    54  H    0.154129
    55  C   -0.254501
    56  H    0.150289
    57  H    0.214733
    58  H    0.204397
    59  C   -0.184364
    60  H    0.193195
    61  H    0.168128
    62  H    0.159976
    63  C   -0.259189
    64  H    0.164311
    65  H    0.249080
    66  H    0.143075
    67  N   -0.121676
    68  N    0.022106
    69  H    0.121642
    70  H    0.119898
    71  H    0.131143
    72  H    0.115039
    73  H    0.110949
    74  C    0.906286
    75  O   -0.772115
    76  O   -0.783782
    77  O   -0.870406
    78  O   -0.587516
    79  H    0.242888
    80  H    0.367167
    81  O   -0.701149
    82  H    0.234289
    83  H    0.446151
 Sum of Mulliken charges =  -0.00000
 Mulliken charges with hydrogens summed into heavy atoms:
               1
     1  C   -0.148837
     2  C    0.145737
     6  C   -0.051239
     8  C   -0.053302
    11  C    0.252101
    12  C    0.058930
    13  C   -0.123983
    17  C    0.477817
    18  C   -0.176002
    19  C   -0.277547
    20  C   -0.149383
    22  C   -0.220818
    24  C    0.190135
    27  C    0.325358
    28  C   -0.213381
    29  C   -0.026013
    30  C   -0.143114
    32  C    0.007050
    34  C   -0.045968
    37  C    0.044041
    40  C   -0.090271
    43  C    0.332133
    47  C    0.254483
    51  C    0.300702
    55  C    0.314918
    59  C    0.336934
    63  C    0.297277
    67  N   -0.121676
    68  N    0.022106
    74  C    0.906286
    75  O   -0.772115
    76  O   -0.783782
    77  O   -0.870406
    78  O    0.022539
    81  O   -0.020709
 Electronic spatial extent (au):  <R**2>=          17443.8805
 Charge=             -0.0000 electrons
 Dipole moment (field-independent basis, Debye):
    X=             -8.0876    Y=             -0.7712    Z=             -6.0525  Tot=             10.1309
 Quadrupole moment (field-independent basis, Debye-Ang):
   XX=           -233.4904   YY=           -157.2311   ZZ=           -231.2690
   XY=            -20.7985   XZ=            -17.2751   YZ=            -12.3471
 Traceless Quadrupole moment (field-independent basis, Debye-Ang):
   XX=            -26.1602   YY=             50.0991   ZZ=            -23.9388
   XY=            -20.7985   XZ=            -17.2751   YZ=            -12.3471
 Octapole moment (field-independent basis, Debye-Ang**2):
  XXX=            -32.7379  YYY=            162.6474  ZZZ=            -32.3254  XYY=            110.4736
  XXY=           -114.2558  XXZ=            -68.1226  XZZ=            -68.5193  YZZ=             23.9717
  YYZ=            -40.0678  XYZ=              1.9553
 Hexadecapole moment (field-independent basis, Debye-Ang**3):
 XXXX=         -12033.2965 YYYY=          -7293.4275 ZZZZ=          -2799.7510 XXXY=           -348.7698
 XXXZ=           -290.4236 YYYX=            -31.2343 YYYZ=           -249.8661 ZZZX=           -132.2248
 ZZZY=            -23.6166 XXYY=          -3154.9690 XXZZ=          -2799.2594 YYZZ=          -1790.2203
 XXYZ=            -22.2050 YYXZ=            -35.9794 ZZXY=             15.0333
 N-N= 4.299219795882D+03 E-N=-1.228615620914D+04  KE= 1.575078891732D+03
 No NMR shielding tensors so no spin-rotation constants.
 Leave Link  601 at Sat Mar 30 23:00:37 2024, MaxMem=  1744830464 cpu:              57.8 elap:               1.9
 (Enter /packages/apps/gaussian/g16/g16/l9999.exe)
 1\1\GINC-C005\FOpt\RwB97XD\6-311+G(2d,2p)\C28H48N2O5\MDTURNE9\30-Mar-2
 024\0\\#p opt=readfc wb97xd/6-311+g(2d,2p) guess=read\\Required\\0,1\C
 ,2.9915428049,-4.2403794402,2.0667171457\C,2.8965352371,-3.5058012833,
 0.7283124037\H,2.2201629205,-5.0056684819,2.1534700436\H,3.9649000932,
 -4.7222168982,2.1665427371\H,2.8782933803,-3.5531977973,2.906777605\C,
 3.9506310416,-2.3906119616,0.6338559981\H,3.1029421544,-4.2304467581,-
 0.0646594496\C,4.1394790983,-1.8401659923,-0.7838756071\H,4.9368562353
 ,-2.3917633786,-1.2873940513\H,3.2358137064,-2.01136826,-1.3727349545\
 C,4.4578563583,-0.3396620615,-0.8299918114\C,4.8606297948,0.096655168,
 -2.2449482524\C,5.2522094922,1.5661423146,-2.3435783221\H,5.5700825613
 ,1.8205015596,-3.3546295484\H,4.4157642159,2.2147136712,-2.0810477959\
 H,6.0765850017,1.7965011395,-1.6654366683\C,1.510033353,-2.9453241901,
 0.477142184\C,0.872170409,-2.1427677665,1.4208817831\C,0.8578413615,-3
 .1696033185,-0.7310837299\C,-0.3845440394,-1.6144272808,1.1781451604\H
 ,1.3665698938,-1.9113877016,2.3554779159\C,-0.3919957452,-2.6258700705
 ,-0.9840706268\H,1.3413428731,-3.769650665,-1.4923426018\C,-1.04529116
 6,-1.8632202627,-0.0218806562\H,-0.8542082827,-0.9784186981,1.91838955
 16\H,-0.8629867617,-2.7877109981,-1.9455724315\C,3.2889130431,0.465148
 1901,-0.2981911136\C,3.4114036688,1.2249426707,0.8588895247\C,2.050237
 4879,0.4375039106,-0.9387956222\C,2.3311754339,1.938486522,1.358702854
 2\H,4.3597340018,1.2507935982,1.3816087293\C,0.9674558832,1.1463912642
 ,-0.4501913042\H,1.9171497301,-0.1628797536,-1.8298349723\C,1.10430220
 45,1.9159216799,0.7058454893\H,2.4449817307,2.5060638547,2.2754522248\
 H,-0.0001188163,1.1163248721,-0.9499999329\C,-0.08392951,2.6491405378,
 1.2473215428\H,-1.0269578433,2.1449741592,0.9924960059\H,-0.0114166207
 ,2.7763738301,2.3277876552\C,-2.3977300187,-1.276509443,-0.2952706795\
 H,-2.5549055833,-0.3660622128,0.2782617861\H,-2.5308377493,-1.04088739
 3,-1.3507491218\C,-1.576107352,4.5611312002,1.2108451184\H,-1.73774205
 81,5.5650896845,0.8250953781\H,-2.3465942725,3.859673024,0.8773910991\
 H,-1.5314625565,4.5821537863,2.2978378442\C,-0.3171591661,4.041811273,
 -0.8015249368\H,0.6766115323,3.8104027218,-1.174727452\H,-1.0290428042
 ,3.2659557992,-1.1286278875\H,-0.6158164378,5.0336676851,-1.1340479881
 \C,0.8272454749,4.9527462681,1.1433103861\H,0.8318356121,4.9939293002,
 2.2302775444\H,1.7750878306,4.56256499,0.7834327267\H,0.6574834331,5.9
 469365638,0.7366047923\C,-4.8230680381,-1.5518094537,-0.4373307826\H,-
 5.6650447178,-2.1255192035,-0.0550436847\H,-4.847758742,-0.5139905656,
 -0.1127763187\H,-4.7951482797,-1.5687240157,-1.5230441932\C,-3.4272907
 122,-3.5213620781,-0.5690780027\H,-3.3115175941,-3.3776787796,-1.64041
 79536\H,-2.5617212049,-4.0348707679,-0.1619687175\H,-4.3299713698,-4.0
 933799819,-0.3682559535\C,-3.6594361426,-2.3365855056,1.5485954021\H,-
 2.728037532,-2.7555160686,1.9200982692\H,-3.8522461954,-1.3483749461,1
 .9708172048\H,-4.4822080609,-3.0120822512,1.7742089562\N,-0.266166964,
 4.0607415243,0.6942475631\N,-3.5660856466,-2.1903787191,0.0702375194\H
 ,4.9043993022,-2.7683594655,1.0099054823\H,3.6515455062,-1.5867798405,
 1.3112683464\H,4.0373568725,-0.1123775694,-2.9334302669\H,5.6963088345
 ,-0.5279389622,-2.5701342156\H,5.3130209336,-0.1528422947,-0.171534797
 9\C,-2.992460904,1.6340288653,-0.8376295154\O,-1.9793720372,1.70427862
 75,-1.6112265317\O,-4.12570212,1.2136090421,-1.2349513074\O,-2.8420848
 294,1.9508034732,0.428033055\O,-3.5209974609,-0.4243249283,-3.20530217
 76\H,-2.7295595683,0.0039903676,-3.535263899\H,-3.8324507949,0.2576317
 801,-2.5414932011\O,-4.3610299205,0.7159847146,2.1075139652\H,-5.26023
 42064,1.001606842,1.9528671237\H,-3.8205176772,1.2393779888,1.43306692
 04\\Version=ES64L-G16RevA.03\State=1-A\HF=-1581.5353944\RMSD=2.995e-09
 \RMSF=7.921e-06\Dipole=3.1898977,-0.6390749,2.3027958\Quadrupole=-16.0
 622079,33.3173456,-17.2551377,21.4217912,-11.8812115,9.8285617\PG=C01 
 [X(C28H48N2O5)]\\@


 WE MIGHT AS WELL ATTEMPT TO INTRODUCE A NEW PLANET 
 INTO THE SOLAR SYSTEM, OR TO ANNIHILATE ONE ALREADYIN EXISTENCE, 
 AS TO CREATE OR DESTROY A PARTICLE OF HYDROGEN.
 ALL THE CHANGES WE CAN PRODUCE CONSIST IN SEPARATING PARTICLES
 THAT ARE IN A STATE OF ... COMBINATION, AND JOINING 
 THOSE THAT WERE PREVIOUSLY AT A DISTANCE.

                                    -- JOHN DALTON, 1810
 Job cpu time:      18 days  6 hours 55 minutes 47.0 seconds.
 Elapsed time:       0 days 11 hours 21 minutes 55.7 seconds.
 File lengths (MBytes):  RWF=   1127 Int=      0 D2E=      0 Chk=    153 Scr=      1
 Normal termination of Gaussian 16 at Sat Mar 30 23:00:38 2024.
