 Entering Gaussian System, Link 0=g16
 Input=1water.gjf
 Output=1water.log
 Initial command:
 /packages/apps/gaussian/g16/g16/l1.exe "/scratch/mdturne9/3-5-ethyl/geo/Gau-812024.inp" -scrdir="/scratch/mdturne9/3-5-ethyl/geo/"
 Entering Link 1 = /packages/apps/gaussian/g16/g16/l1.exe PID=    812025.
  
 Copyright (c) 1988,1990,1992,1993,1995,1998,2003,2009,2016,
            Gaussian, Inc.  All Rights Reserved.
  
 This is part of the Gaussian(R) 16 program.  It is based on
 the Gaussian(R) 09 system (copyright 2009, Gaussian, Inc.),
 the Gaussian(R) 03 system (copyright 2003, Gaussian, Inc.),
 the Gaussian(R) 98 system (copyright 1998, Gaussian, Inc.),
 the Gaussian(R) 94 system (copyright 1995, Gaussian, Inc.),
 the Gaussian 92(TM) system (copyright 1992, Gaussian, Inc.),
 the Gaussian 90(TM) system (copyright 1990, Gaussian, Inc.),
 the Gaussian 88(TM) system (copyright 1988, Gaussian, Inc.),
 the Gaussian 86(TM) system (copyright 1986, Carnegie Mellon
 University), and the Gaussian 82(TM) system (copyright 1983,
 Carnegie Mellon University). Gaussian is a federally registered
 trademark of Gaussian, Inc.
  
 This software contains proprietary and confidential information,
 including trade secrets, belonging to Gaussian, Inc.
  
 This software is provided under written license and may be
 used, copied, transmitted, or stored only in accord with that
 written license.
  
 The following legend is applicable only to US Government
 contracts under FAR:
  
                    RESTRICTED RIGHTS LEGEND
  
 Use, reproduction and disclosure by the US Government is
 subject to restrictions as set forth in subparagraphs (a)
 and (c) of the Commercial Computer Software - Restricted
 Rights clause in FAR 52.227-19.
  
 Gaussian, Inc.
 340 Quinnipiac St., Bldg. 40, Wallingford CT 06492
  
  
 ---------------------------------------------------------------
 Warning -- This program may not be used in any manner that
 competes with the business of Gaussian, Inc. or will provide
 assistance to any competitor of Gaussian, Inc.  The licensee
 of this program is prohibited from giving any competitor of
 Gaussian, Inc. access to this program.  By using this program,
 the user acknowledges that Gaussian, Inc. is engaged in the
 business of creating and licensing software in the field of
 computational chemistry and represents and warrants to the
 licensee that it is not a competitor of Gaussian, Inc. and that
 it will not use this program in any manner prohibited above.
 ---------------------------------------------------------------
  

 Cite this work as:
 Gaussian 16, Revision A.03,
 M. J. Frisch, G. W. Trucks, H. B. Schlegel, G. E. Scuseria, 
 M. A. Robb, J. R. Cheeseman, G. Scalmani, V. Barone, 
 G. A. Petersson, H. Nakatsuji, X. Li, M. Caricato, A. V. Marenich, 
 J. Bloino, B. G. Janesko, R. Gomperts, B. Mennucci, H. P. Hratchian, 
 J. V. Ortiz, A. F. Izmaylov, J. L. Sonnenberg, D. Williams-Young, 
 F. Ding, F. Lipparini, F. Egidi, J. Goings, B. Peng, A. Petrone, 
 T. Henderson, D. Ranasinghe, V. G. Zakrzewski, J. Gao, N. Rega, 
 G. Zheng, W. Liang, M. Hada, M. Ehara, K. Toyota, R. Fukuda, 
 J. Hasegawa, M. Ishida, T. Nakajima, Y. Honda, O. Kitao, H. Nakai, 
 T. Vreven, K. Throssell, J. A. Montgomery, Jr., J. E. Peralta, 
 F. Ogliaro, M. J. Bearpark, J. J. Heyd, E. N. Brothers, K. N. Kudin, 
 V. N. Staroverov, T. A. Keith, R. Kobayashi, J. Normand, 
 K. Raghavachari, A. P. Rendell, J. C. Burant, S. S. Iyengar, 
 J. Tomasi, M. Cossi, J. M. Millam, M. Klene, C. Adamo, R. Cammi, 
 J. W. Ochterski, R. L. Martin, K. Morokuma, O. Farkas, 
 J. B. Foresman, and D. J. Fox, Gaussian, Inc., Wallingford CT, 2016.
 
 ******************************************
 Gaussian 16:  ES64L-G16RevA.03 25-Dec-2016
                 7-May-2024 
 ******************************************
 %nprocshared=40
 Will use up to   40 processors via shared memory.
 %mem=17GB
 %chk=1water-v2.chk
 -----------------------------------------------------
 #p opt=calcfc wb97xd/6-311+g(2d,2p) geom=connectivity
 -----------------------------------------------------
 1/10=4,18=20,19=15,26=3,38=1,57=2/1,3;
 2/9=110,12=2,17=6,18=5,40=1/2;
 3/5=4,6=6,7=212,11=2,25=1,30=1,71=2,74=-58,140=1/1,2,3;
 4//1;
 5/5=2,38=5/2;
 8/6=4,10=90,11=11/1;
 11/6=1,8=1,9=11,15=111,16=1/1,2,10;
 10/6=1,13=1/2;
 6/7=2,8=2,9=2,10=2,28=1/1;
 7/10=1,18=20,25=1/1,2,3,16;
 1/10=4,18=20,19=15,26=3/3(2);
 2/9=110/2;
 99//99;
 2/9=110/2;
 3/5=4,6=6,7=212,11=2,25=1,30=1,71=1,74=-58/1,2,3;
 4/5=5,16=3,69=1/1;
 5/5=2,38=5/2;
 7//1,2,3,16;
 1/18=20,19=15,26=3/3(-5);
 2/9=110/2;
 6/7=2,8=2,9=2,10=2,19=2,28=1/1;
 99/9=1/99;
 Leave Link    1 at Tue May  7 19:13:03 2024, MaxMem=  2281701376 cpu:              46.3 elap:               1.4
 (Enter /packages/apps/gaussian/g16/g16/l101.exe)
 --------
 Required
 --------
 Symbolic Z-matrix:
 Charge =  0 Multiplicity = 1
 C                    0    -2.92444  -5.10318   1.17736  L 
 C                    0    -3.76656  -4.24956   0.2369   L 
 H                    0    -3.16392  -6.16063   1.06443  L 
 H                    0    -1.85957  -4.97547   0.9816   L 
 H                    0    -3.10368  -4.82815   2.21874  L 
 C                    0    -3.53982  -2.73647   0.39826  L 
 H                    0    -3.56349  -4.53275  -0.79999  L 
 H                    0    -4.82563  -4.45683   0.40833  L 
 C                    0    -4.4778   -1.95535  -0.54067  L 
 H                    0    -3.80851  -2.47692   1.42775  L 
 H                    0    -4.07508  -1.97227  -1.55736  L 
 H                    0    -5.43145  -2.48756  -0.58905  L 
 C                    0    -4.78889  -0.50536  -0.13347  L 
 C                    0    -5.80293   0.11531  -1.10617  L 
 H                    0    -5.26248  -0.54205   0.85335  L 
 H                    0    -5.35933   0.1573   -2.10487  L 
 H                    0    -6.66377  -0.55376  -1.18148  L 
 C                    0    -6.27156   1.50561  -0.69407  L 
 H                    0    -7.01356   1.89229  -1.39263  L 
 H                    0    -6.7252    1.48597   0.29896  L 
 H                    0    -5.43881   2.20904  -0.66354  L 
 C                    0    -3.54643   0.34805  -0.0002   L 
 C                    0    -3.20131   0.92407   1.21597  L 
 C                    0    -2.68403   0.52778  -1.07798  L 
 C                    0    -2.01614   1.62829   1.3604   L 
 H                    0    -3.84884   0.78502   2.07322  L 
 C                    0    -1.49846   1.22514  -0.93628  L 
 H                    0    -2.9109    0.06856  -2.03162  L 
 C                    0    -1.15047   1.79585   0.28612  L 
 H                    0    -1.7422    2.02607   2.32986  L 
 H                    0    -0.81196   1.28694  -1.77088  L 
 C                    0    -2.07529  -2.38584   0.21402  L 
 C                    0    -1.33306  -1.83971   1.25335  L 
 C                    0    -1.43782  -2.587    -1.00911  L 
 C                    0     0.00316  -1.50469   1.09073  L 
 H                    0    -1.81698  -1.63705   2.20016  L 
 C                    0    -0.10505  -2.25847  -1.17864  L 
 H                    0    -1.99473  -2.98243  -1.84983  L 
 C                    0     0.64092  -1.74456  -0.12045  L 
 H                    0     0.54273  -1.01377   1.89379  L 
 H                    0     0.36237  -2.37904  -2.14823  L 
 C                    0     2.09343  -1.43278  -0.30204  L 
 H                    0     2.28932  -1.15283  -1.33203  L 
 H                    0     2.38997  -0.60212   0.32847  L 
 C                    0     0.17785   2.46369   0.47067  L 
 H                    0     0.47918   2.39344   1.5109   L 
 H                    0     0.96561   1.9866   -0.12595  L 
 C                    0     4.37632  -2.28186  -0.67013  L 
 H                    0     5.10596  -2.94983  -0.2103   L 
 C                    0     4.35126  -2.46271  -2.17506  L 
 H                    0     4.61842  -1.23564  -0.45158  L 
 C                    0     2.56798  -3.92397  -0.41197  L 
 C                    0     1.58955  -4.66381   0.48863  L 
 H                    0     2.13624  -3.77696  -1.39765  L 
 H                    0     3.46308  -4.53281  -0.53267  L 
 C                    0     3.32106  -2.60098   1.52751  L 
 C                    0     4.19211  -1.48025   2.06767  L 
 H                    0     2.34153  -2.59255   2.00033  L 
 H                    0     3.78468  -3.56652   1.73112  L 
 C                    0     1.72344   4.34429   0.26061  L 
 H                    0     1.80484   5.32142  -0.21794  L 
 C                    0     2.24784   4.39496   1.68145  L 
 H                    0     2.28024   3.5978   -0.30835  L 
 C                    0    -0.17315   4.22116  -1.302    L 
 C                    0     0.71981   3.66962  -2.39599  L 
 H                    0    -1.17706   3.8167   -1.39519  L 
 H                    0    -0.24117   5.30665  -1.38264  L 
 C                    0    -0.56953   4.79526   1.05113  L 
 C                    0    -2.04979   4.94717   0.73468  L 
 H                    0    -0.43419   4.36703   2.04079  L 
 H                    0    -0.10412   5.78039   1.05234  L 
 N                    0     3.06245  -2.57126   0.03937  L 
 N                    0     0.25849   3.94724   0.1163   L 
 H                    0    -2.2214    5.54769  -0.15603  L 
 H                    0    -2.50682   5.47166   1.57385  L 
 H                    0    -2.55817   3.9948    0.62065  L 
 H                    0     0.19317   3.80324  -3.34106  L 
 H                    0     0.95629   2.61762  -2.2671   L 
 H                    0     1.66863   4.19631  -2.45919  L 
 H                    0     2.16016   3.43223   2.17787  L 
 H                    0     1.7948    5.18159   2.28526  L 
 H                    0     3.31556   4.59616   1.60989  L 
 H                    0     5.23869  -1.62161   1.80727  L 
 H                    0     4.11123  -1.50939   3.15484  L 
 H                    0     3.8999   -0.48306   1.7293   L 
 H                    0     4.22497  -3.49752  -2.49384  L 
 H                    0     5.31593  -2.11436  -2.54189  L 
 H                    0     3.59588  -1.83538  -2.64706  L 
 H                    0     1.28975  -5.56732  -0.04278  L 
 H                    0     0.69242  -4.09333   0.70589  L 
 H                    0     2.04534  -4.97458   1.4263   L 
 C                    0     3.5267    1.2654   -0.28083  L 
 O                    0     2.61073   1.67666  -1.11702  L 
 O                    0     3.31756   1.46895   0.98418  L 
 O                    0     4.54648   0.65656  -0.69171  L 
 O                    0     1.57848   0.85912   2.76845  L 
 H                    0     2.12974   0.83273   3.549    L 
 H                    0     2.21757   1.09131   2.02352  L 
 
 Add virtual bond connecting atoms H98        and O94        Dist= 2.95D+00.
 Add virtual bond connecting atoms O93        and H47        Dist= 3.68D+00.
 Add virtual bond connecting atoms O95        and H51        Dist= 3.61D+00.
 ITRead=  0  0  0  0  0  0  0  0  0  0  0  0  0  0  0  0  0  0  0  0
 ITRead=  0  0  0  0  0  0  0  0  0  0  0  0  0  0  0  0  0  0  0  0
 ITRead=  0  0  0  0  0  0  0  0  0  0  0  0  0  0  0  0  0  0  0  0
 ITRead=  0  0  0  0  0  0  0  0  0  0  0  0  0  0  0  0  0  0  0  0
 ITRead=  0  0  0  0  0  0  0  0  0  0  0  0  0  0  0  0  0  0
 MicOpt= -1 -1 -1 -1 -1 -1 -1 -1 -1 -1 -1 -1 -1 -1 -1 -1 -1 -1 -1 -1
 MicOpt= -1 -1 -1 -1 -1 -1 -1 -1 -1 -1 -1 -1 -1 -1 -1 -1 -1 -1 -1 -1
 MicOpt= -1 -1 -1 -1 -1 -1 -1 -1 -1 -1 -1 -1 -1 -1 -1 -1 -1 -1 -1 -1
 MicOpt= -1 -1 -1 -1 -1 -1 -1 -1 -1 -1 -1 -1 -1 -1 -1 -1 -1 -1 -1 -1
 MicOpt= -1 -1 -1 -1 -1 -1 -1 -1 -1 -1 -1 -1 -1 -1 -1 -1 -1 -1
 NAtoms=     98 NQM=       98 NQMF=       0 NMMI=      0 NMMIF=      0
                NMic=       0 NMicF=      0.
                    Isotopes and Nuclear Properties:
 (Nuclear quadrupole moments (NQMom) in fm**2, nuclear magnetic moments (NMagM)
  in nuclear magnetons)

  Atom         1           2           3           4           5           6           7           8           9          10
 IAtWgt=          12          12           1           1           1          12           1           1          12           1
 AtmWgt=  12.0000000  12.0000000   1.0078250   1.0078250   1.0078250  12.0000000   1.0078250   1.0078250  12.0000000   1.0078250
 NucSpn=           0           0           1           1           1           0           1           1           0           1
 AtZEff=  -0.0000000  -0.0000000  -0.0000000  -0.0000000  -0.0000000  -0.0000000  -0.0000000  -0.0000000  -0.0000000  -0.0000000
 NQMom=    0.0000000   0.0000000   0.0000000   0.0000000   0.0000000   0.0000000   0.0000000   0.0000000   0.0000000   0.0000000
 NMagM=    0.0000000   0.0000000   2.7928460   2.7928460   2.7928460   0.0000000   2.7928460   2.7928460   0.0000000   2.7928460
 AtZNuc=   6.0000000   6.0000000   1.0000000   1.0000000   1.0000000   6.0000000   1.0000000   1.0000000   6.0000000   1.0000000

  Atom        11          12          13          14          15          16          17          18          19          20
 IAtWgt=           1           1          12          12           1           1           1          12           1           1
 AtmWgt=   1.0078250   1.0078250  12.0000000  12.0000000   1.0078250   1.0078250   1.0078250  12.0000000   1.0078250   1.0078250
 NucSpn=           1           1           0           0           1           1           1           0           1           1
 AtZEff=  -0.0000000  -0.0000000  -0.0000000  -0.0000000  -0.0000000  -0.0000000  -0.0000000  -0.0000000  -0.0000000  -0.0000000
 NQMom=    0.0000000   0.0000000   0.0000000   0.0000000   0.0000000   0.0000000   0.0000000   0.0000000   0.0000000   0.0000000
 NMagM=    2.7928460   2.7928460   0.0000000   0.0000000   2.7928460   2.7928460   2.7928460   0.0000000   2.7928460   2.7928460
 AtZNuc=   1.0000000   1.0000000   6.0000000   6.0000000   1.0000000   1.0000000   1.0000000   6.0000000   1.0000000   1.0000000

  Atom        21          22          23          24          25          26          27          28          29          30
 IAtWgt=           1          12          12          12          12           1          12           1          12           1
 AtmWgt=   1.0078250  12.0000000  12.0000000  12.0000000  12.0000000   1.0078250  12.0000000   1.0078250  12.0000000   1.0078250
 NucSpn=           1           0           0           0           0           1           0           1           0           1
 AtZEff=  -0.0000000  -0.0000000  -0.0000000  -0.0000000  -0.0000000  -0.0000000  -0.0000000  -0.0000000  -0.0000000  -0.0000000
 NQMom=    0.0000000   0.0000000   0.0000000   0.0000000   0.0000000   0.0000000   0.0000000   0.0000000   0.0000000   0.0000000
 NMagM=    2.7928460   0.0000000   0.0000000   0.0000000   0.0000000   2.7928460   0.0000000   2.7928460   0.0000000   2.7928460
 AtZNuc=   1.0000000   6.0000000   6.0000000   6.0000000   6.0000000   1.0000000   6.0000000   1.0000000   6.0000000   1.0000000

  Atom        31          32          33          34          35          36          37          38          39          40
 IAtWgt=           1          12          12          12          12           1          12           1          12           1
 AtmWgt=   1.0078250  12.0000000  12.0000000  12.0000000  12.0000000   1.0078250  12.0000000   1.0078250  12.0000000   1.0078250
 NucSpn=           1           0           0           0           0           1           0           1           0           1
 AtZEff=  -0.0000000  -0.0000000  -0.0000000  -0.0000000  -0.0000000  -0.0000000  -0.0000000  -0.0000000  -0.0000000  -0.0000000
 NQMom=    0.0000000   0.0000000   0.0000000   0.0000000   0.0000000   0.0000000   0.0000000   0.0000000   0.0000000   0.0000000
 NMagM=    2.7928460   0.0000000   0.0000000   0.0000000   0.0000000   2.7928460   0.0000000   2.7928460   0.0000000   2.7928460
 AtZNuc=   1.0000000   6.0000000   6.0000000   6.0000000   6.0000000   1.0000000   6.0000000   1.0000000   6.0000000   1.0000000

  Atom        41          42          43          44          45          46          47          48          49          50
 IAtWgt=           1          12           1           1          12           1           1          12           1          12
 AtmWgt=   1.0078250  12.0000000   1.0078250   1.0078250  12.0000000   1.0078250   1.0078250  12.0000000   1.0078250  12.0000000
 NucSpn=           1           0           1           1           0           1           1           0           1           0
 AtZEff=  -0.0000000  -0.0000000  -0.0000000  -0.0000000  -0.0000000  -0.0000000  -0.0000000  -0.0000000  -0.0000000  -0.0000000
 NQMom=    0.0000000   0.0000000   0.0000000   0.0000000   0.0000000   0.0000000   0.0000000   0.0000000   0.0000000   0.0000000
 NMagM=    2.7928460   0.0000000   2.7928460   2.7928460   0.0000000   2.7928460   2.7928460   0.0000000   2.7928460   0.0000000
 AtZNuc=   1.0000000   6.0000000   1.0000000   1.0000000   6.0000000   1.0000000   1.0000000   6.0000000   1.0000000   6.0000000

  Atom        51          52          53          54          55          56          57          58          59          60
 IAtWgt=           1          12          12           1           1          12          12           1           1          12
 AtmWgt=   1.0078250  12.0000000  12.0000000   1.0078250   1.0078250  12.0000000  12.0000000   1.0078250   1.0078250  12.0000000
 NucSpn=           1           0           0           1           1           0           0           1           1           0
 AtZEff=  -0.0000000  -0.0000000  -0.0000000  -0.0000000  -0.0000000  -0.0000000  -0.0000000  -0.0000000  -0.0000000  -0.0000000
 NQMom=    0.0000000   0.0000000   0.0000000   0.0000000   0.0000000   0.0000000   0.0000000   0.0000000   0.0000000   0.0000000
 NMagM=    2.7928460   0.0000000   0.0000000   2.7928460   2.7928460   0.0000000   0.0000000   2.7928460   2.7928460   0.0000000
 AtZNuc=   1.0000000   6.0000000   6.0000000   1.0000000   1.0000000   6.0000000   6.0000000   1.0000000   1.0000000   6.0000000

  Atom        61          62          63          64          65          66          67          68          69          70
 IAtWgt=           1          12           1          12          12           1           1          12          12           1
 AtmWgt=   1.0078250  12.0000000   1.0078250  12.0000000  12.0000000   1.0078250   1.0078250  12.0000000  12.0000000   1.0078250
 NucSpn=           1           0           1           0           0           1           1           0           0           1
 AtZEff=  -0.0000000  -0.0000000  -0.0000000  -0.0000000  -0.0000000  -0.0000000  -0.0000000  -0.0000000  -0.0000000  -0.0000000
 NQMom=    0.0000000   0.0000000   0.0000000   0.0000000   0.0000000   0.0000000   0.0000000   0.0000000   0.0000000   0.0000000
 NMagM=    2.7928460   0.0000000   2.7928460   0.0000000   0.0000000   2.7928460   2.7928460   0.0000000   0.0000000   2.7928460
 AtZNuc=   1.0000000   6.0000000   1.0000000   6.0000000   6.0000000   1.0000000   1.0000000   6.0000000   6.0000000   1.0000000

  Atom        71          72          73          74          75          76          77          78          79          80
 IAtWgt=           1          14          14           1           1           1           1           1           1           1
 AtmWgt=   1.0078250  14.0030740  14.0030740   1.0078250   1.0078250   1.0078250   1.0078250   1.0078250   1.0078250   1.0078250
 NucSpn=           1           2           2           1           1           1           1           1           1           1
 AtZEff=  -0.0000000  -0.0000000  -0.0000000  -0.0000000  -0.0000000  -0.0000000  -0.0000000  -0.0000000  -0.0000000  -0.0000000
 NQMom=    0.0000000   2.0440000   2.0440000   0.0000000   0.0000000   0.0000000   0.0000000   0.0000000   0.0000000   0.0000000
 NMagM=    2.7928460   0.4037610   0.4037610   2.7928460   2.7928460   2.7928460   2.7928460   2.7928460   2.7928460   2.7928460
 AtZNuc=   1.0000000   7.0000000   7.0000000   1.0000000   1.0000000   1.0000000   1.0000000   1.0000000   1.0000000   1.0000000

  Atom        81          82          83          84          85          86          87          88          89          90
 IAtWgt=           1           1           1           1           1           1           1           1           1           1
 AtmWgt=   1.0078250   1.0078250   1.0078250   1.0078250   1.0078250   1.0078250   1.0078250   1.0078250   1.0078250   1.0078250
 NucSpn=           1           1           1           1           1           1           1           1           1           1
 AtZEff=  -0.0000000  -0.0000000  -0.0000000  -0.0000000  -0.0000000  -0.0000000  -0.0000000  -0.0000000  -0.0000000  -0.0000000
 NQMom=    0.0000000   0.0000000   0.0000000   0.0000000   0.0000000   0.0000000   0.0000000   0.0000000   0.0000000   0.0000000
 NMagM=    2.7928460   2.7928460   2.7928460   2.7928460   2.7928460   2.7928460   2.7928460   2.7928460   2.7928460   2.7928460
 AtZNuc=   1.0000000   1.0000000   1.0000000   1.0000000   1.0000000   1.0000000   1.0000000   1.0000000   1.0000000   1.0000000

  Atom        91          92          93          94          95          96          97          98
 IAtWgt=           1          12          16          16          16          16           1           1
 AtmWgt=   1.0078250  12.0000000  15.9949146  15.9949146  15.9949146  15.9949146   1.0078250   1.0078250
 NucSpn=           1           0           0           0           0           0           1           1
 AtZEff=  -0.0000000  -0.0000000  -0.0000000  -0.0000000  -0.0000000  -0.0000000  -0.0000000  -0.0000000
 NQMom=    0.0000000   0.0000000   0.0000000   0.0000000   0.0000000   0.0000000   0.0000000   0.0000000
 NMagM=    2.7928460   0.0000000   0.0000000   0.0000000   0.0000000   0.0000000   2.7928460   2.7928460
 AtZNuc=   1.0000000   6.0000000   8.0000000   8.0000000   8.0000000   8.0000000   1.0000000   1.0000000
 Leave Link  101 at Tue May  7 19:13:04 2024, MaxMem=  2281701376 cpu:              14.4 elap:               0.5
 (Enter /packages/apps/gaussian/g16/g16/l103.exe)

 GradGradGradGradGradGradGradGradGradGradGradGradGradGradGradGradGradGrad
 Berny optimization.
 Initialization pass.
                           ----------------------------
                           !    Initial Parameters    !
                           ! (Angstroms and Degrees)  !
 --------------------------                            --------------------------
 ! Name  Definition              Value          Derivative Info.                !
 --------------------------------------------------------------------------------
 ! R1    R(1,2)                  1.5239         calculate D2E/DX2 analytically  !
 ! R2    R(1,3)                  1.0901         calculate D2E/DX2 analytically  !
 ! R3    R(1,4)                  1.0902         calculate D2E/DX2 analytically  !
 ! R4    R(1,5)                  1.0919         calculate D2E/DX2 analytically  !
 ! R5    R(2,6)                  1.5385         calculate D2E/DX2 analytically  !
 ! R6    R(2,7)                  1.0939         calculate D2E/DX2 analytically  !
 ! R7    R(2,8)                  1.0927         calculate D2E/DX2 analytically  !
 ! R8    R(6,9)                  1.54           calculate D2E/DX2 analytically  !
 ! R9    R(6,10)                 1.0952         calculate D2E/DX2 analytically  !
 ! R10   R(6,32)                 1.5171         calculate D2E/DX2 analytically  !
 ! R11   R(9,11)                 1.0937         calculate D2E/DX2 analytically  !
 ! R12   R(9,12)                 1.0932         calculate D2E/DX2 analytically  !
 ! R13   R(9,13)                 1.5379         calculate D2E/DX2 analytically  !
 ! R14   R(13,14)                1.5361         calculate D2E/DX2 analytically  !
 ! R15   R(13,15)                1.0952         calculate D2E/DX2 analytically  !
 ! R16   R(13,22)                1.5132         calculate D2E/DX2 analytically  !
 ! R17   R(14,16)                1.0936         calculate D2E/DX2 analytically  !
 ! R18   R(14,17)                1.0929         calculate D2E/DX2 analytically  !
 ! R19   R(14,18)                1.5239         calculate D2E/DX2 analytically  !
 ! R20   R(18,19)                1.09           calculate D2E/DX2 analytically  !
 ! R21   R(18,20)                1.0919         calculate D2E/DX2 analytically  !
 ! R22   R(18,21)                1.0905         calculate D2E/DX2 analytically  !
 ! R23   R(22,23)                1.3892         calculate D2E/DX2 analytically  !
 ! R24   R(22,24)                1.392          calculate D2E/DX2 analytically  !
 ! R25   R(23,25)                1.3862         calculate D2E/DX2 analytically  !
 ! R26   R(23,26)                1.0833         calculate D2E/DX2 analytically  !
 ! R27   R(24,27)                1.3827         calculate D2E/DX2 analytically  !
 ! R28   R(24,28)                1.0825         calculate D2E/DX2 analytically  !
 ! R29   R(25,29)                1.3898         calculate D2E/DX2 analytically  !
 ! R30   R(25,30)                1.0831         calculate D2E/DX2 analytically  !
 ! R31   R(27,29)                1.3932         calculate D2E/DX2 analytically  !
 ! R32   R(27,31)                1.0824         calculate D2E/DX2 analytically  !
 ! R33   R(29,45)                1.4982         calculate D2E/DX2 analytically  !
 ! R34   R(32,33)                1.389          calculate D2E/DX2 analytically  !
 ! R35   R(32,34)                1.3939         calculate D2E/DX2 analytically  !
 ! R36   R(33,35)                1.3871         calculate D2E/DX2 analytically  !
 ! R37   R(33,36)                1.0824         calculate D2E/DX2 analytically  !
 ! R38   R(34,37)                1.3831         calculate D2E/DX2 analytically  !
 ! R39   R(34,38)                1.0832         calculate D2E/DX2 analytically  !
 ! R40   R(35,39)                1.3897         calculate D2E/DX2 analytically  !
 ! R41   R(35,40)                1.0849         calculate D2E/DX2 analytically  !
 ! R42   R(37,39)                1.393          calculate D2E/DX2 analytically  !
 ! R43   R(37,41)                1.0831         calculate D2E/DX2 analytically  !
 ! R44   R(39,42)                1.4967         calculate D2E/DX2 analytically  !
 ! R45   R(42,43)                1.0852         calculate D2E/DX2 analytically  !
 ! R46   R(42,44)                1.0842         calculate D2E/DX2 analytically  !
 ! R47   R(42,72)                1.5335         calculate D2E/DX2 analytically  !
 ! R48   R(45,46)                1.0853         calculate D2E/DX2 analytically  !
 ! R49   R(45,47)                1.0973         calculate D2E/DX2 analytically  !
 ! R50   R(45,73)                1.5274         calculate D2E/DX2 analytically  !
 ! R51   R(47,93)                1.9454         calculate D2E/DX2 analytically  !
 ! R52   R(48,49)                1.0909         calculate D2E/DX2 analytically  !
 ! R53   R(48,50)                1.516          calculate D2E/DX2 analytically  !
 ! R54   R(48,51)                1.0959         calculate D2E/DX2 analytically  !
 ! R55   R(48,72)                1.521          calculate D2E/DX2 analytically  !
 ! R56   R(50,86)                1.0901         calculate D2E/DX2 analytically  !
 ! R57   R(50,87)                1.0893         calculate D2E/DX2 analytically  !
 ! R58   R(50,88)                1.0895         calculate D2E/DX2 analytically  !
 ! R59   R(51,95)                1.9087         calculate D2E/DX2 analytically  !
 ! R60   R(52,53)                1.5218         calculate D2E/DX2 analytically  !
 ! R61   R(52,54)                1.0861         calculate D2E/DX2 analytically  !
 ! R62   R(52,55)                1.0893         calculate D2E/DX2 analytically  !
 ! R63   R(52,72)                1.5093         calculate D2E/DX2 analytically  !
 ! R64   R(53,89)                1.0902         calculate D2E/DX2 analytically  !
 ! R65   R(53,90)                1.0851         calculate D2E/DX2 analytically  !
 ! R66   R(53,91)                1.0879         calculate D2E/DX2 analytically  !
 ! R67   R(56,57)                1.5187         calculate D2E/DX2 analytically  !
 ! R68   R(56,58)                1.0877         calculate D2E/DX2 analytically  !
 ! R69   R(56,59)                1.0903         calculate D2E/DX2 analytically  !
 ! R70   R(56,72)                1.5107         calculate D2E/DX2 analytically  !
 ! R71   R(57,83)                1.0877         calculate D2E/DX2 analytically  !
 ! R72   R(57,84)                1.0906         calculate D2E/DX2 analytically  !
 ! R73   R(57,85)                1.0928         calculate D2E/DX2 analytically  !
 ! R74   R(60,61)                1.0911         calculate D2E/DX2 analytically  !
 ! R75   R(60,62)                1.5154         calculate D2E/DX2 analytically  !
 ! R76   R(60,63)                1.0913         calculate D2E/DX2 analytically  !
 ! R77   R(60,73)                1.5247         calculate D2E/DX2 analytically  !
 ! R78   R(62,80)                1.0867         calculate D2E/DX2 analytically  !
 ! R79   R(62,81)                1.0902         calculate D2E/DX2 analytically  !
 ! R80   R(62,82)                1.0889         calculate D2E/DX2 analytically  !
 ! R81   R(64,65)                1.516          calculate D2E/DX2 analytically  !
 ! R82   R(64,66)                1.0863         calculate D2E/DX2 analytically  !
 ! R83   R(64,67)                1.0906         calculate D2E/DX2 analytically  !
 ! R84   R(64,73)                1.5076         calculate D2E/DX2 analytically  !
 ! R85   R(65,77)                1.0901         calculate D2E/DX2 analytically  !
 ! R86   R(65,78)                1.0859         calculate D2E/DX2 analytically  !
 ! R87   R(65,79)                1.087          calculate D2E/DX2 analytically  !
 ! R88   R(68,69)                1.5213         calculate D2E/DX2 analytically  !
 ! R89   R(68,70)                1.0868         calculate D2E/DX2 analytically  !
 ! R90   R(68,71)                1.0895         calculate D2E/DX2 analytically  !
 ! R91   R(68,73)                1.5095         calculate D2E/DX2 analytically  !
 ! R92   R(69,74)                1.0879         calculate D2E/DX2 analytically  !
 ! R93   R(69,75)                1.09           calculate D2E/DX2 analytically  !
 ! R94   R(69,76)                1.0856         calculate D2E/DX2 analytically  !
 ! R95   R(92,93)                1.3067         calculate D2E/DX2 analytically  !
 ! R96   R(92,94)                1.2982         calculate D2E/DX2 analytically  !
 ! R97   R(92,95)                1.2568         calculate D2E/DX2 analytically  !
 ! R98   R(94,98)                1.5598         calculate D2E/DX2 analytically  !
 ! R99   R(96,97)                0.9559         calculate D2E/DX2 analytically  !
 ! R100  R(96,98)                1.0086         calculate D2E/DX2 analytically  !
 ! A1    A(2,1,3)              110.98           calculate D2E/DX2 analytically  !
 ! A2    A(2,1,4)              111.3047         calculate D2E/DX2 analytically  !
 ! A3    A(2,1,5)              110.9023         calculate D2E/DX2 analytically  !
 ! A4    A(3,1,4)              108.0359         calculate D2E/DX2 analytically  !
 ! A5    A(3,1,5)              107.8833         calculate D2E/DX2 analytically  !
 ! A6    A(4,1,5)              107.5831         calculate D2E/DX2 analytically  !
 ! A7    A(1,2,6)              113.8754         calculate D2E/DX2 analytically  !
 ! A8    A(1,2,7)              109.7173         calculate D2E/DX2 analytically  !
 ! A9    A(1,2,8)              109.4222         calculate D2E/DX2 analytically  !
 ! A10   A(6,2,7)              109.0669         calculate D2E/DX2 analytically  !
 ! A11   A(6,2,8)              108.2373         calculate D2E/DX2 analytically  !
 ! A12   A(7,2,8)              106.2319         calculate D2E/DX2 analytically  !
 ! A13   A(2,6,9)              110.1912         calculate D2E/DX2 analytically  !
 ! A14   A(2,6,10)             107.1884         calculate D2E/DX2 analytically  !
 ! A15   A(2,6,32)             110.9055         calculate D2E/DX2 analytically  !
 ! A16   A(9,6,10)             107.6675         calculate D2E/DX2 analytically  !
 ! A17   A(9,6,32)             113.3719         calculate D2E/DX2 analytically  !
 ! A18   A(10,6,32)            107.2299         calculate D2E/DX2 analytically  !
 ! A19   A(6,9,11)             109.5516         calculate D2E/DX2 analytically  !
 ! A20   A(6,9,12)             108.1423         calculate D2E/DX2 analytically  !
 ! A21   A(6,9,13)             116.1048         calculate D2E/DX2 analytically  !
 ! A22   A(11,9,12)            105.8162         calculate D2E/DX2 analytically  !
 ! A23   A(11,9,13)            109.5858         calculate D2E/DX2 analytically  !
 ! A24   A(12,9,13)            107.1145         calculate D2E/DX2 analytically  !
 ! A25   A(9,13,14)            110.2933         calculate D2E/DX2 analytically  !
 ! A26   A(9,13,15)            107.1252         calculate D2E/DX2 analytically  !
 ! A27   A(9,13,22)            112.8909         calculate D2E/DX2 analytically  !
 ! A28   A(14,13,15)           107.376          calculate D2E/DX2 analytically  !
 ! A29   A(14,13,22)           111.7106         calculate D2E/DX2 analytically  !
 ! A30   A(15,13,22)           107.1332         calculate D2E/DX2 analytically  !
 ! A31   A(13,14,16)           109.0269         calculate D2E/DX2 analytically  !
 ! A32   A(13,14,17)           108.4362         calculate D2E/DX2 analytically  !
 ! A33   A(13,14,18)           113.6018         calculate D2E/DX2 analytically  !
 ! A34   A(16,14,17)           106.2663         calculate D2E/DX2 analytically  !
 ! A35   A(16,14,18)           109.6735         calculate D2E/DX2 analytically  !
 ! A36   A(17,14,18)           109.5688         calculate D2E/DX2 analytically  !
 ! A37   A(14,18,19)           111.0801         calculate D2E/DX2 analytically  !
 ! A38   A(14,18,20)           110.9328         calculate D2E/DX2 analytically  !
 ! A39   A(14,18,21)           111.1758         calculate D2E/DX2 analytically  !
 ! A40   A(19,18,20)           107.8431         calculate D2E/DX2 analytically  !
 ! A41   A(19,18,21)           107.9958         calculate D2E/DX2 analytically  !
 ! A42   A(20,18,21)           107.6616         calculate D2E/DX2 analytically  !
 ! A43   A(13,22,23)           120.992          calculate D2E/DX2 analytically  !
 ! A44   A(13,22,24)           120.8852         calculate D2E/DX2 analytically  !
 ! A45   A(23,22,24)           118.0585         calculate D2E/DX2 analytically  !
 ! A46   A(22,23,25)           120.9486         calculate D2E/DX2 analytically  !
 ! A47   A(22,23,26)           119.4095         calculate D2E/DX2 analytically  !
 ! A48   A(25,23,26)           119.5927         calculate D2E/DX2 analytically  !
 ! A49   A(22,24,27)           121.1294         calculate D2E/DX2 analytically  !
 ! A50   A(22,24,28)           119.8342         calculate D2E/DX2 analytically  !
 ! A51   A(27,24,28)           118.9422         calculate D2E/DX2 analytically  !
 ! A52   A(23,25,29)           120.8818         calculate D2E/DX2 analytically  !
 ! A53   A(23,25,30)           119.7421         calculate D2E/DX2 analytically  !
 ! A54   A(29,25,30)           119.3441         calculate D2E/DX2 analytically  !
 ! A55   A(24,27,29)           120.7077         calculate D2E/DX2 analytically  !
 ! A56   A(24,27,31)           119.575          calculate D2E/DX2 analytically  !
 ! A57   A(29,27,31)           119.6507         calculate D2E/DX2 analytically  !
 ! A58   A(25,29,27)           118.245          calculate D2E/DX2 analytically  !
 ! A59   A(25,29,45)           120.7158         calculate D2E/DX2 analytically  !
 ! A60   A(27,29,45)           120.8064         calculate D2E/DX2 analytically  !
 ! A61   A(6,32,33)            121.0528         calculate D2E/DX2 analytically  !
 ! A62   A(6,32,34)            120.9763         calculate D2E/DX2 analytically  !
 ! A63   A(33,32,34)           117.9664         calculate D2E/DX2 analytically  !
 ! A64   A(32,33,35)           121.4647         calculate D2E/DX2 analytically  !
 ! A65   A(32,33,36)           119.2889         calculate D2E/DX2 analytically  !
 ! A66   A(35,33,36)           119.2074         calculate D2E/DX2 analytically  !
 ! A67   A(32,34,37)           120.9291         calculate D2E/DX2 analytically  !
 ! A68   A(32,34,38)           119.9087         calculate D2E/DX2 analytically  !
 ! A69   A(37,34,38)           119.144          calculate D2E/DX2 analytically  !
 ! A70   A(33,35,39)           120.1702         calculate D2E/DX2 analytically  !
 ! A71   A(33,35,40)           120.1051         calculate D2E/DX2 analytically  !
 ! A72   A(39,35,40)           119.6685         calculate D2E/DX2 analytically  !
 ! A73   A(34,37,39)           120.701          calculate D2E/DX2 analytically  !
 ! A74   A(34,37,41)           119.9431         calculate D2E/DX2 analytically  !
 ! A75   A(39,37,41)           119.3414         calculate D2E/DX2 analytically  !
 ! A76   A(35,39,37)           118.6854         calculate D2E/DX2 analytically  !
 ! A77   A(35,39,42)           121.0096         calculate D2E/DX2 analytically  !
 ! A78   A(37,39,42)           120.2925         calculate D2E/DX2 analytically  !
 ! A79   A(39,42,43)           110.1259         calculate D2E/DX2 analytically  !
 ! A80   A(39,42,44)           110.762          calculate D2E/DX2 analytically  !
 ! A81   A(39,42,72)           115.5684         calculate D2E/DX2 analytically  !
 ! A82   A(43,42,44)           107.7553         calculate D2E/DX2 analytically  !
 ! A83   A(43,42,72)           106.7838         calculate D2E/DX2 analytically  !
 ! A84   A(44,42,72)           105.4558         calculate D2E/DX2 analytically  !
 ! A85   A(29,45,46)           109.5965         calculate D2E/DX2 analytically  !
 ! A86   A(29,45,47)           112.0686         calculate D2E/DX2 analytically  !
 ! A87   A(29,45,73)           116.8205         calculate D2E/DX2 analytically  !
 ! A88   A(46,45,47)           107.0775         calculate D2E/DX2 analytically  !
 ! A89   A(46,45,73)           105.6994         calculate D2E/DX2 analytically  !
 ! A90   A(47,45,73)           104.9662         calculate D2E/DX2 analytically  !
 ! A91   A(45,47,93)           162.4234         calculate D2E/DX2 analytically  !
 ! A92   A(49,48,50)           110.8829         calculate D2E/DX2 analytically  !
 ! A93   A(49,48,51)           110.656          calculate D2E/DX2 analytically  !
 ! A94   A(49,48,72)           105.3458         calculate D2E/DX2 analytically  !
 ! A95   A(50,48,51)           108.392          calculate D2E/DX2 analytically  !
 ! A96   A(50,48,72)           115.2201         calculate D2E/DX2 analytically  !
 ! A97   A(51,48,72)           106.2281         calculate D2E/DX2 analytically  !
 ! A98   A(48,50,86)           113.9194         calculate D2E/DX2 analytically  !
 ! A99   A(48,50,87)           106.3512         calculate D2E/DX2 analytically  !
 ! A100  A(48,50,88)           111.892          calculate D2E/DX2 analytically  !
 ! A101  A(86,50,87)           107.9196         calculate D2E/DX2 analytically  !
 ! A102  A(86,50,88)           109.8514         calculate D2E/DX2 analytically  !
 ! A103  A(87,50,88)           106.499          calculate D2E/DX2 analytically  !
 ! A104  A(48,51,95)           155.9238         calculate D2E/DX2 analytically  !
 ! A105  A(53,52,54)           110.3235         calculate D2E/DX2 analytically  !
 ! A106  A(53,52,55)           108.7952         calculate D2E/DX2 analytically  !
 ! A107  A(53,52,72)           117.9957         calculate D2E/DX2 analytically  !
 ! A108  A(54,52,55)           107.5627         calculate D2E/DX2 analytically  !
 ! A109  A(54,52,72)           106.2789         calculate D2E/DX2 analytically  !
 ! A110  A(55,52,72)           105.3593         calculate D2E/DX2 analytically  !
 ! A111  A(52,53,89)           106.9327         calculate D2E/DX2 analytically  !
 ! A112  A(52,53,90)           113.2324         calculate D2E/DX2 analytically  !
 ! A113  A(52,53,91)           112.308          calculate D2E/DX2 analytically  !
 ! A114  A(89,53,90)           107.8149         calculate D2E/DX2 analytically  !
 ! A115  A(89,53,91)           107.3726         calculate D2E/DX2 analytically  !
 ! A116  A(90,53,91)           108.9042         calculate D2E/DX2 analytically  !
 ! A117  A(57,56,58)           110.8652         calculate D2E/DX2 analytically  !
 ! A118  A(57,56,59)           110.0726         calculate D2E/DX2 analytically  !
 ! A119  A(57,56,72)           115.7222         calculate D2E/DX2 analytically  !
 ! A120  A(58,56,59)           107.9766         calculate D2E/DX2 analytically  !
 ! A121  A(58,56,72)           105.8953         calculate D2E/DX2 analytically  !
 ! A122  A(59,56,72)           105.9131         calculate D2E/DX2 analytically  !
 ! A123  A(56,57,83)           111.7647         calculate D2E/DX2 analytically  !
 ! A124  A(56,57,84)           106.9956         calculate D2E/DX2 analytically  !
 ! A125  A(56,57,85)           114.1969         calculate D2E/DX2 analytically  !
 ! A126  A(83,57,84)           107.8511         calculate D2E/DX2 analytically  !
 ! A127  A(83,57,85)           107.5631         calculate D2E/DX2 analytically  !
 ! A128  A(84,57,85)           108.253          calculate D2E/DX2 analytically  !
 ! A129  A(61,60,62)           110.8232         calculate D2E/DX2 analytically  !
 ! A130  A(61,60,63)           110.2339         calculate D2E/DX2 analytically  !
 ! A131  A(61,60,73)           105.272          calculate D2E/DX2 analytically  !
 ! A132  A(62,60,63)           109.5811         calculate D2E/DX2 analytically  !
 ! A133  A(62,60,73)           115.4653         calculate D2E/DX2 analytically  !
 ! A134  A(63,60,73)           105.2328         calculate D2E/DX2 analytically  !
 ! A135  A(60,62,80)           111.7622         calculate D2E/DX2 analytically  !
 ! A136  A(60,62,81)           113.5534         calculate D2E/DX2 analytically  !
 ! A137  A(60,62,82)           106.4927         calculate D2E/DX2 analytically  !
 ! A138  A(80,62,81)           110.6514         calculate D2E/DX2 analytically  !
 ! A139  A(80,62,82)           105.8329         calculate D2E/DX2 analytically  !
 ! A140  A(81,62,82)           108.093          calculate D2E/DX2 analytically  !
 ! A141  A(65,64,66)           110.3018         calculate D2E/DX2 analytically  !
 ! A142  A(65,64,67)           110.211          calculate D2E/DX2 analytically  !
 ! A143  A(65,64,73)           116.3673         calculate D2E/DX2 analytically  !
 ! A144  A(66,64,67)           107.8538         calculate D2E/DX2 analytically  !
 ! A145  A(66,64,73)           106.1191         calculate D2E/DX2 analytically  !
 ! A146  A(67,64,73)           105.5605         calculate D2E/DX2 analytically  !
 ! A147  A(64,65,77)           107.2441         calculate D2E/DX2 analytically  !
 ! A148  A(64,65,78)           113.2695         calculate D2E/DX2 analytically  !
 ! A149  A(64,65,79)           112.3208         calculate D2E/DX2 analytically  !
 ! A150  A(77,65,78)           109.0779         calculate D2E/DX2 analytically  !
 ! A151  A(77,65,79)           108.1727         calculate D2E/DX2 analytically  !
 ! A152  A(78,65,79)           106.6308         calculate D2E/DX2 analytically  !
 ! A153  A(69,68,70)           110.4831         calculate D2E/DX2 analytically  !
 ! A154  A(69,68,71)           109.0016         calculate D2E/DX2 analytically  !
 ! A155  A(69,68,73)           117.4518         calculate D2E/DX2 analytically  !
 ! A156  A(70,68,71)           107.5816         calculate D2E/DX2 analytically  !
 ! A157  A(70,68,73)           105.9185         calculate D2E/DX2 analytically  !
 ! A158  A(71,68,73)           105.9215         calculate D2E/DX2 analytically  !
 ! A159  A(68,69,74)           112.267          calculate D2E/DX2 analytically  !
 ! A160  A(68,69,75)           107.2099         calculate D2E/DX2 analytically  !
 ! A161  A(68,69,76)           112.9498         calculate D2E/DX2 analytically  !
 ! A162  A(74,69,75)           107.3722         calculate D2E/DX2 analytically  !
 ! A163  A(74,69,76)           108.9299         calculate D2E/DX2 analytically  !
 ! A164  A(75,69,76)           107.8572         calculate D2E/DX2 analytically  !
 ! A165  A(42,72,48)           107.5019         calculate D2E/DX2 analytically  !
 ! A166  A(42,72,52)           113.0651         calculate D2E/DX2 analytically  !
 ! A167  A(42,72,56)           110.0032         calculate D2E/DX2 analytically  !
 ! A168  A(48,72,52)           108.3032         calculate D2E/DX2 analytically  !
 ! A169  A(48,72,56)           108.3829         calculate D2E/DX2 analytically  !
 ! A170  A(52,72,56)           109.4515         calculate D2E/DX2 analytically  !
 ! A171  A(45,73,60)           106.3622         calculate D2E/DX2 analytically  !
 ! A172  A(45,73,64)           112.3101         calculate D2E/DX2 analytically  !
 ! A173  A(45,73,68)           111.9014         calculate D2E/DX2 analytically  !
 ! A174  A(60,73,64)           108.4709         calculate D2E/DX2 analytically  !
 ! A175  A(60,73,68)           108.7918         calculate D2E/DX2 analytically  !
 ! A176  A(64,73,68)           108.8737         calculate D2E/DX2 analytically  !
 ! A177  A(93,92,94)           117.4706         calculate D2E/DX2 analytically  !
 ! A178  A(93,92,95)           120.8023         calculate D2E/DX2 analytically  !
 ! A179  A(94,92,95)           121.684          calculate D2E/DX2 analytically  !
 ! A180  A(47,93,92)           108.4769         calculate D2E/DX2 analytically  !
 ! A181  A(92,94,98)           136.4642         calculate D2E/DX2 analytically  !
 ! A182  A(51,95,92)           118.0151         calculate D2E/DX2 analytically  !
 ! A183  A(97,96,98)           104.1245         calculate D2E/DX2 analytically  !
 ! A184  L(94,98,96,11,-1)     185.7151         calculate D2E/DX2 analytically  !
 ! A185  L(94,98,96,11,-2)     178.5923         calculate D2E/DX2 analytically  !
 ! D1    D(3,1,2,6)            176.6841         calculate D2E/DX2 analytically  !
 ! D2    D(3,1,2,7)            -60.7598         calculate D2E/DX2 analytically  !
 ! D3    D(3,1,2,8)             55.4219         calculate D2E/DX2 analytically  !
 ! D4    D(4,1,2,6)            -62.954          calculate D2E/DX2 analytically  !
 ! D5    D(4,1,2,7)             59.6021         calculate D2E/DX2 analytically  !
 ! D6    D(4,1,2,8)            175.7838         calculate D2E/DX2 analytically  !
 ! D7    D(5,1,2,6)             56.7834         calculate D2E/DX2 analytically  !
 ! D8    D(5,1,2,7)            179.3395         calculate D2E/DX2 analytically  !
 ! D9    D(5,1,2,8)            -64.4788         calculate D2E/DX2 analytically  !
 ! D10   D(1,2,6,9)           -177.2949         calculate D2E/DX2 analytically  !
 ! D11   D(1,2,6,10)           -60.4075         calculate D2E/DX2 analytically  !
 ! D12   D(1,2,6,32)            56.34           calculate D2E/DX2 analytically  !
 ! D13   D(7,2,6,9)             59.7928         calculate D2E/DX2 analytically  !
 ! D14   D(7,2,6,10)           176.6802         calculate D2E/DX2 analytically  !
 ! D15   D(7,2,6,32)           -66.5723         calculate D2E/DX2 analytically  !
 ! D16   D(8,2,6,9)            -55.3756         calculate D2E/DX2 analytically  !
 ! D17   D(8,2,6,10)            61.5118         calculate D2E/DX2 analytically  !
 ! D18   D(8,2,6,32)           178.2592         calculate D2E/DX2 analytically  !
 ! D19   D(2,6,9,11)           -78.6567         calculate D2E/DX2 analytically  !
 ! D20   D(2,6,9,12)            36.2236         calculate D2E/DX2 analytically  !
 ! D21   D(2,6,9,13)           156.5823         calculate D2E/DX2 analytically  !
 ! D22   D(10,6,9,11)          164.7544         calculate D2E/DX2 analytically  !
 ! D23   D(10,6,9,12)          -80.3653         calculate D2E/DX2 analytically  !
 ! D24   D(10,6,9,13)           39.9934         calculate D2E/DX2 analytically  !
 ! D25   D(32,6,9,11)           46.31           calculate D2E/DX2 analytically  !
 ! D26   D(32,6,9,12)          161.1904         calculate D2E/DX2 analytically  !
 ! D27   D(32,6,9,13)          -78.4509         calculate D2E/DX2 analytically  !
 ! D28   D(2,6,32,33)         -116.7212         calculate D2E/DX2 analytically  !
 ! D29   D(2,6,32,34)           64.0705         calculate D2E/DX2 analytically  !
 ! D30   D(9,6,32,33)          118.6977         calculate D2E/DX2 analytically  !
 ! D31   D(9,6,32,34)          -60.5107         calculate D2E/DX2 analytically  !
 ! D32   D(10,6,32,33)           0.0008         calculate D2E/DX2 analytically  !
 ! D33   D(10,6,32,34)        -179.2076         calculate D2E/DX2 analytically  !
 ! D34   D(6,9,13,14)         -176.2916         calculate D2E/DX2 analytically  !
 ! D35   D(6,9,13,15)          -59.733          calculate D2E/DX2 analytically  !
 ! D36   D(6,9,13,22)           57.9586         calculate D2E/DX2 analytically  !
 ! D37   D(11,9,13,14)          58.965          calculate D2E/DX2 analytically  !
 ! D38   D(11,9,13,15)         175.5237         calculate D2E/DX2 analytically  !
 ! D39   D(11,9,13,22)         -66.7848         calculate D2E/DX2 analytically  !
 ! D40   D(12,9,13,14)         -55.3814         calculate D2E/DX2 analytically  !
 ! D41   D(12,9,13,15)          61.1772         calculate D2E/DX2 analytically  !
 ! D42   D(12,9,13,22)         178.8688         calculate D2E/DX2 analytically  !
 ! D43   D(9,13,14,16)         -63.1322         calculate D2E/DX2 analytically  !
 ! D44   D(9,13,14,17)          52.1628         calculate D2E/DX2 analytically  !
 ! D45   D(9,13,14,18)         174.2318         calculate D2E/DX2 analytically  !
 ! D46   D(15,13,14,16)       -179.5346         calculate D2E/DX2 analytically  !
 ! D47   D(15,13,14,17)        -64.2396         calculate D2E/DX2 analytically  !
 ! D48   D(15,13,14,18)         57.8295         calculate D2E/DX2 analytically  !
 ! D49   D(22,13,14,16)         63.2819         calculate D2E/DX2 analytically  !
 ! D50   D(22,13,14,17)        178.5769         calculate D2E/DX2 analytically  !
 ! D51   D(22,13,14,18)        -59.354          calculate D2E/DX2 analytically  !
 ! D52   D(9,13,22,23)        -118.1174         calculate D2E/DX2 analytically  !
 ! D53   D(9,13,22,24)          58.9088         calculate D2E/DX2 analytically  !
 ! D54   D(14,13,22,23)        116.8994         calculate D2E/DX2 analytically  !
 ! D55   D(14,13,22,24)        -66.0744         calculate D2E/DX2 analytically  !
 ! D56   D(15,13,22,23)         -0.4305         calculate D2E/DX2 analytically  !
 ! D57   D(15,13,22,24)        176.5957         calculate D2E/DX2 analytically  !
 ! D58   D(13,14,18,19)       -178.0637         calculate D2E/DX2 analytically  !
 ! D59   D(13,14,18,20)        -58.127          calculate D2E/DX2 analytically  !
 ! D60   D(13,14,18,21)         61.6442         calculate D2E/DX2 analytically  !
 ! D61   D(16,14,18,19)         59.6574         calculate D2E/DX2 analytically  !
 ! D62   D(16,14,18,20)        179.594          calculate D2E/DX2 analytically  !
 ! D63   D(16,14,18,21)        -60.6347         calculate D2E/DX2 analytically  !
 ! D64   D(17,14,18,19)        -56.6248         calculate D2E/DX2 analytically  !
 ! D65   D(17,14,18,20)         63.3118         calculate D2E/DX2 analytically  !
 ! D66   D(17,14,18,21)       -176.9169         calculate D2E/DX2 analytically  !
 ! D67   D(13,22,23,25)        175.4967         calculate D2E/DX2 analytically  !
 ! D68   D(13,22,23,26)         -1.9419         calculate D2E/DX2 analytically  !
 ! D69   D(24,22,23,25)         -1.6114         calculate D2E/DX2 analytically  !
 ! D70   D(24,22,23,26)       -179.0499         calculate D2E/DX2 analytically  !
 ! D71   D(13,22,24,27)       -175.2404         calculate D2E/DX2 analytically  !
 ! D72   D(13,22,24,28)          1.1924         calculate D2E/DX2 analytically  !
 ! D73   D(23,22,24,27)          1.8709         calculate D2E/DX2 analytically  !
 ! D74   D(23,22,24,28)        178.3037         calculate D2E/DX2 analytically  !
 ! D75   D(22,23,25,29)          1.0491         calculate D2E/DX2 analytically  !
 ! D76   D(22,23,25,30)       -176.8802         calculate D2E/DX2 analytically  !
 ! D77   D(26,23,25,29)        178.4829         calculate D2E/DX2 analytically  !
 ! D78   D(26,23,25,30)          0.5537         calculate D2E/DX2 analytically  !
 ! D79   D(22,24,27,29)         -1.5643         calculate D2E/DX2 analytically  !
 ! D80   D(22,24,27,31)        175.458          calculate D2E/DX2 analytically  !
 ! D81   D(28,24,27,29)       -178.0283         calculate D2E/DX2 analytically  !
 ! D82   D(28,24,27,31)         -1.006          calculate D2E/DX2 analytically  !
 ! D83   D(23,25,29,27)         -0.6737         calculate D2E/DX2 analytically  !
 ! D84   D(23,25,29,45)       -175.1747         calculate D2E/DX2 analytically  !
 ! D85   D(30,25,29,27)        177.2637         calculate D2E/DX2 analytically  !
 ! D86   D(30,25,29,45)          2.7627         calculate D2E/DX2 analytically  !
 ! D87   D(24,27,29,25)          0.9273         calculate D2E/DX2 analytically  !
 ! D88   D(24,27,29,45)        175.4232         calculate D2E/DX2 analytically  !
 ! D89   D(31,27,29,25)       -176.0928         calculate D2E/DX2 analytically  !
 ! D90   D(31,27,29,45)         -1.5969         calculate D2E/DX2 analytically  !
 ! D91   D(25,29,45,46)         22.719          calculate D2E/DX2 analytically  !
 ! D92   D(25,29,45,47)        141.4502         calculate D2E/DX2 analytically  !
 ! D93   D(25,29,45,73)        -97.4032         calculate D2E/DX2 analytically  !
 ! D94   D(27,29,45,46)       -151.6406         calculate D2E/DX2 analytically  !
 ! D95   D(27,29,45,47)        -32.9094         calculate D2E/DX2 analytically  !
 ! D96   D(27,29,45,73)         88.2372         calculate D2E/DX2 analytically  !
 ! D97   D(6,32,33,35)        -179.4066         calculate D2E/DX2 analytically  !
 ! D98   D(6,32,33,36)          -1.6934         calculate D2E/DX2 analytically  !
 ! D99   D(34,32,33,35)         -0.1751         calculate D2E/DX2 analytically  !
 ! D100  D(34,32,33,36)        177.5381         calculate D2E/DX2 analytically  !
 ! D101  D(6,32,34,37)         179.5525         calculate D2E/DX2 analytically  !
 ! D102  D(6,32,34,38)           1.1172         calculate D2E/DX2 analytically  !
 ! D103  D(33,32,34,37)          0.3204         calculate D2E/DX2 analytically  !
 ! D104  D(33,32,34,38)       -178.1149         calculate D2E/DX2 analytically  !
 ! D105  D(32,33,35,39)         -1.6867         calculate D2E/DX2 analytically  !
 ! D106  D(32,33,35,40)        175.5791         calculate D2E/DX2 analytically  !
 ! D107  D(36,33,35,39)       -179.4017         calculate D2E/DX2 analytically  !
 ! D108  D(36,33,35,40)         -2.136          calculate D2E/DX2 analytically  !
 ! D109  D(32,34,37,39)          1.3983         calculate D2E/DX2 analytically  !
 ! D110  D(32,34,37,41)       -177.2033         calculate D2E/DX2 analytically  !
 ! D111  D(38,34,37,39)        179.8454         calculate D2E/DX2 analytically  !
 ! D112  D(38,34,37,41)          1.2438         calculate D2E/DX2 analytically  !
 ! D113  D(33,35,39,37)          3.3402         calculate D2E/DX2 analytically  !
 ! D114  D(33,35,39,42)       -177.9412         calculate D2E/DX2 analytically  !
 ! D115  D(40,35,39,37)       -173.9375         calculate D2E/DX2 analytically  !
 ! D116  D(40,35,39,42)          4.7811         calculate D2E/DX2 analytically  !
 ! D117  D(34,37,39,35)         -3.2131         calculate D2E/DX2 analytically  !
 ! D118  D(34,37,39,42)        178.0589         calculate D2E/DX2 analytically  !
 ! D119  D(41,37,39,35)        175.3968         calculate D2E/DX2 analytically  !
 ! D120  D(41,37,39,42)         -3.3312         calculate D2E/DX2 analytically  !
 ! D121  D(35,39,42,43)       -148.7882         calculate D2E/DX2 analytically  !
 ! D122  D(35,39,42,44)        -29.6927         calculate D2E/DX2 analytically  !
 ! D123  D(35,39,42,72)         90.1304         calculate D2E/DX2 analytically  !
 ! D124  D(37,39,42,43)         29.9098         calculate D2E/DX2 analytically  !
 ! D125  D(37,39,42,44)        149.0053         calculate D2E/DX2 analytically  !
 ! D126  D(37,39,42,72)        -91.1716         calculate D2E/DX2 analytically  !
 ! D127  D(39,42,72,48)        159.3034         calculate D2E/DX2 analytically  !
 ! D128  D(39,42,72,52)         39.8199         calculate D2E/DX2 analytically  !
 ! D129  D(39,42,72,56)        -82.8767         calculate D2E/DX2 analytically  !
 ! D130  D(43,42,72,48)         36.435          calculate D2E/DX2 analytically  !
 ! D131  D(43,42,72,52)        -83.0485         calculate D2E/DX2 analytically  !
 ! D132  D(43,42,72,56)        154.2549         calculate D2E/DX2 analytically  !
 ! D133  D(44,42,72,48)        -78.0128         calculate D2E/DX2 analytically  !
 ! D134  D(44,42,72,52)        162.5036         calculate D2E/DX2 analytically  !
 ! D135  D(44,42,72,56)         39.8071         calculate D2E/DX2 analytically  !
 ! D136  D(29,45,47,93)        157.1084         calculate D2E/DX2 analytically  !
 ! D137  D(46,45,47,93)        -82.6829         calculate D2E/DX2 analytically  !
 ! D138  D(73,45,47,93)         29.3497         calculate D2E/DX2 analytically  !
 ! D139  D(29,45,73,60)       -174.6536         calculate D2E/DX2 analytically  !
 ! D140  D(29,45,73,64)        -56.1387         calculate D2E/DX2 analytically  !
 ! D141  D(29,45,73,68)         66.669          calculate D2E/DX2 analytically  !
 ! D142  D(46,45,73,60)         63.1722         calculate D2E/DX2 analytically  !
 ! D143  D(46,45,73,64)       -178.3129         calculate D2E/DX2 analytically  !
 ! D144  D(46,45,73,68)        -55.5052         calculate D2E/DX2 analytically  !
 ! D145  D(47,45,73,60)        -49.8379         calculate D2E/DX2 analytically  !
 ! D146  D(47,45,73,64)         68.677          calculate D2E/DX2 analytically  !
 ! D147  D(47,45,73,68)       -168.5152         calculate D2E/DX2 analytically  !
 ! D148  D(45,47,93,92)         88.0038         calculate D2E/DX2 analytically  !
 ! D149  D(49,48,50,86)         52.0668         calculate D2E/DX2 analytically  !
 ! D150  D(49,48,50,87)        -66.6779         calculate D2E/DX2 analytically  !
 ! D151  D(49,48,50,88)        177.4181         calculate D2E/DX2 analytically  !
 ! D152  D(51,48,50,86)        173.7173         calculate D2E/DX2 analytically  !
 ! D153  D(51,48,50,87)         54.9726         calculate D2E/DX2 analytically  !
 ! D154  D(51,48,50,88)        -60.9314         calculate D2E/DX2 analytically  !
 ! D155  D(72,48,50,86)        -67.4573         calculate D2E/DX2 analytically  !
 ! D156  D(72,48,50,87)        173.798          calculate D2E/DX2 analytically  !
 ! D157  D(72,48,50,88)         57.894          calculate D2E/DX2 analytically  !
 ! D158  D(49,48,51,95)        162.0727         calculate D2E/DX2 analytically  !
 ! D159  D(50,48,51,95)         40.2829         calculate D2E/DX2 analytically  !
 ! D160  D(72,48,51,95)        -84.0808         calculate D2E/DX2 analytically  !
 ! D161  D(49,48,72,42)        165.7715         calculate D2E/DX2 analytically  !
 ! D162  D(49,48,72,52)        -71.7495         calculate D2E/DX2 analytically  !
 ! D163  D(49,48,72,56)         46.9059         calculate D2E/DX2 analytically  !
 ! D164  D(50,48,72,42)        -71.6918         calculate D2E/DX2 analytically  !
 ! D165  D(50,48,72,52)         50.7872         calculate D2E/DX2 analytically  !
 ! D166  D(50,48,72,56)        169.4426         calculate D2E/DX2 analytically  !
 ! D167  D(51,48,72,42)         48.3294         calculate D2E/DX2 analytically  !
 ! D168  D(51,48,72,52)        170.8084         calculate D2E/DX2 analytically  !
 ! D169  D(51,48,72,56)        -70.5362         calculate D2E/DX2 analytically  !
 ! D170  D(48,51,95,92)         77.0992         calculate D2E/DX2 analytically  !
 ! D171  D(54,52,53,89)         52.9376         calculate D2E/DX2 analytically  !
 ! D172  D(54,52,53,90)        -65.6641         calculate D2E/DX2 analytically  !
 ! D173  D(54,52,53,91)        170.4717         calculate D2E/DX2 analytically  !
 ! D174  D(55,52,53,89)        -64.8348         calculate D2E/DX2 analytically  !
 ! D175  D(55,52,53,90)        176.5635         calculate D2E/DX2 analytically  !
 ! D176  D(55,52,53,91)         52.6993         calculate D2E/DX2 analytically  !
 ! D177  D(72,52,53,89)        175.3109         calculate D2E/DX2 analytically  !
 ! D178  D(72,52,53,90)         56.7092         calculate D2E/DX2 analytically  !
 ! D179  D(72,52,53,91)        -67.1549         calculate D2E/DX2 analytically  !
 ! D180  D(53,52,72,42)        -83.1076         calculate D2E/DX2 analytically  !
 ! D181  D(53,52,72,48)        157.8711         calculate D2E/DX2 analytically  !
 ! D182  D(53,52,72,56)         39.8954         calculate D2E/DX2 analytically  !
 ! D183  D(54,52,72,42)         41.2961         calculate D2E/DX2 analytically  !
 ! D184  D(54,52,72,48)        -77.7253         calculate D2E/DX2 analytically  !
 ! D185  D(54,52,72,56)        164.299          calculate D2E/DX2 analytically  !
 ! D186  D(55,52,72,42)        155.263          calculate D2E/DX2 analytically  !
 ! D187  D(55,52,72,48)         36.2416         calculate D2E/DX2 analytically  !
 ! D188  D(55,52,72,56)        -81.7341         calculate D2E/DX2 analytically  !
 ! D189  D(58,56,57,83)        165.3236         calculate D2E/DX2 analytically  !
 ! D190  D(58,56,57,84)         47.4722         calculate D2E/DX2 analytically  !
 ! D191  D(58,56,57,85)        -72.2903         calculate D2E/DX2 analytically  !
 ! D192  D(59,56,57,83)         45.9219         calculate D2E/DX2 analytically  !
 ! D193  D(59,56,57,84)        -71.9295         calculate D2E/DX2 analytically  !
 ! D194  D(59,56,57,85)        168.308          calculate D2E/DX2 analytically  !
 ! D195  D(72,56,57,83)        -74.0814         calculate D2E/DX2 analytically  !
 ! D196  D(72,56,57,84)        168.0672         calculate D2E/DX2 analytically  !
 ! D197  D(72,56,57,85)         48.3046         calculate D2E/DX2 analytically  !
 ! D198  D(57,56,72,42)        -72.4896         calculate D2E/DX2 analytically  !
 ! D199  D(57,56,72,48)         44.7834         calculate D2E/DX2 analytically  !
 ! D200  D(57,56,72,52)        162.7093         calculate D2E/DX2 analytically  !
 ! D201  D(58,56,72,42)         50.7574         calculate D2E/DX2 analytically  !
 ! D202  D(58,56,72,48)        168.0304         calculate D2E/DX2 analytically  !
 ! D203  D(58,56,72,52)        -74.0437         calculate D2E/DX2 analytically  !
 ! D204  D(59,56,72,42)        165.2689         calculate D2E/DX2 analytically  !
 ! D205  D(59,56,72,48)        -77.4581         calculate D2E/DX2 analytically  !
 ! D206  D(59,56,72,52)         40.4678         calculate D2E/DX2 analytically  !
 ! D207  D(61,60,62,80)        179.1469         calculate D2E/DX2 analytically  !
 ! D208  D(61,60,62,81)         53.1117         calculate D2E/DX2 analytically  !
 ! D209  D(61,60,62,82)        -65.7296         calculate D2E/DX2 analytically  !
 ! D210  D(63,60,62,80)        -58.9811         calculate D2E/DX2 analytically  !
 ! D211  D(63,60,62,81)        174.9837         calculate D2E/DX2 analytically  !
 ! D212  D(63,60,62,82)         56.1423         calculate D2E/DX2 analytically  !
 ! D213  D(73,60,62,80)         59.592          calculate D2E/DX2 analytically  !
 ! D214  D(73,60,62,81)        -66.4432         calculate D2E/DX2 analytically  !
 ! D215  D(73,60,62,82)        174.7155         calculate D2E/DX2 analytically  !
 ! D216  D(61,60,73,45)        166.8517         calculate D2E/DX2 analytically  !
 ! D217  D(61,60,73,64)         45.8407         calculate D2E/DX2 analytically  !
 ! D218  D(61,60,73,68)        -72.4481         calculate D2E/DX2 analytically  !
 ! D219  D(62,60,73,45)        -70.5882         calculate D2E/DX2 analytically  !
 ! D220  D(62,60,73,64)        168.4008         calculate D2E/DX2 analytically  !
 ! D221  D(62,60,73,68)         50.112          calculate D2E/DX2 analytically  !
 ! D222  D(63,60,73,45)         50.3694         calculate D2E/DX2 analytically  !
 ! D223  D(63,60,73,64)        -70.6416         calculate D2E/DX2 analytically  !
 ! D224  D(63,60,73,68)        171.0697         calculate D2E/DX2 analytically  !
 ! D225  D(66,64,65,77)         49.8093         calculate D2E/DX2 analytically  !
 ! D226  D(66,64,65,78)        -70.59           calculate D2E/DX2 analytically  !
 ! D227  D(66,64,65,79)        168.5238         calculate D2E/DX2 analytically  !
 ! D228  D(67,64,65,77)        -69.1731         calculate D2E/DX2 analytically  !
 ! D229  D(67,64,65,78)        170.4276         calculate D2E/DX2 analytically  !
 ! D230  D(67,64,65,79)         49.5415         calculate D2E/DX2 analytically  !
 ! D231  D(73,64,65,77)        170.7251         calculate D2E/DX2 analytically  !
 ! D232  D(73,64,65,78)         50.3258         calculate D2E/DX2 analytically  !
 ! D233  D(73,64,65,79)        -70.5603         calculate D2E/DX2 analytically  !
 ! D234  D(65,64,73,45)        -67.0327         calculate D2E/DX2 analytically  !
 ! D235  D(65,64,73,60)         50.2322         calculate D2E/DX2 analytically  !
 ! D236  D(65,64,73,68)        168.4691         calculate D2E/DX2 analytically  !
 ! D237  D(66,64,73,45)         56.0845         calculate D2E/DX2 analytically  !
 ! D238  D(66,64,73,60)        173.3495         calculate D2E/DX2 analytically  !
 ! D239  D(66,64,73,68)        -68.4137         calculate D2E/DX2 analytically  !
 ! D240  D(67,64,73,45)        170.3995         calculate D2E/DX2 analytically  !
 ! D241  D(67,64,73,60)        -72.3355         calculate D2E/DX2 analytically  !
 ! D242  D(67,64,73,68)         45.9013         calculate D2E/DX2 analytically  !
 ! D243  D(70,68,69,74)        168.7133         calculate D2E/DX2 analytically  !
 ! D244  D(70,68,69,75)         51.0299         calculate D2E/DX2 analytically  !
 ! D245  D(70,68,69,76)        -67.6403         calculate D2E/DX2 analytically  !
 ! D246  D(71,68,69,74)         50.7005         calculate D2E/DX2 analytically  !
 ! D247  D(71,68,69,75)        -66.9829         calculate D2E/DX2 analytically  !
 ! D248  D(71,68,69,76)        174.3468         calculate D2E/DX2 analytically  !
 ! D249  D(73,68,69,74)        -69.6865         calculate D2E/DX2 analytically  !
 ! D250  D(73,68,69,75)        172.6302         calculate D2E/DX2 analytically  !
 ! D251  D(73,68,69,76)         53.9599         calculate D2E/DX2 analytically  !
 ! D252  D(69,68,73,45)        -84.5579         calculate D2E/DX2 analytically  !
 ! D253  D(69,68,73,60)        158.2153         calculate D2E/DX2 analytically  !
 ! D254  D(69,68,73,64)         40.1808         calculate D2E/DX2 analytically  !
 ! D255  D(70,68,73,45)         39.3751         calculate D2E/DX2 analytically  !
 ! D256  D(70,68,73,60)        -77.8517         calculate D2E/DX2 analytically  !
 ! D257  D(70,68,73,64)        164.1138         calculate D2E/DX2 analytically  !
 ! D258  D(71,68,73,45)        153.4542         calculate D2E/DX2 analytically  !
 ! D259  D(71,68,73,60)         36.2274         calculate D2E/DX2 analytically  !
 ! D260  D(71,68,73,64)        -81.8071         calculate D2E/DX2 analytically  !
 ! D261  D(94,92,93,47)        -17.2188         calculate D2E/DX2 analytically  !
 ! D262  D(95,92,93,47)        160.433          calculate D2E/DX2 analytically  !
 ! D263  D(93,92,94,98)         57.7458         calculate D2E/DX2 analytically  !
 ! D264  D(95,92,94,98)       -119.884          calculate D2E/DX2 analytically  !
 ! D265  D(93,92,95,51)       -103.6086         calculate D2E/DX2 analytically  !
 ! D266  D(94,92,95,51)         73.943          calculate D2E/DX2 analytically  !
 ! D267  D(92,94,96,97)        149.5486         calculate D2E/DX2 analytically  !
 --------------------------------------------------------------------------------
 Trust Radius=3.00D-01 FncErr=1.00D-07 GrdErr=1.00D-06 EigMax=2.50D+02 EigMin=1.00D-04
 Number of steps in this run=    562 maximum allowed number of steps=    588.
 GradGradGradGradGradGradGradGradGradGradGradGradGradGradGradGradGradGrad

 Leave Link  103 at Tue May  7 19:13:05 2024, MaxMem=  2281701376 cpu:               2.7 elap:               0.2
 (Enter /packages/apps/gaussian/g16/g16/l202.exe)
 Stoichiometry    C34H58N2O4
 Framework group  C1[X(C34H58N2O4)]
 Deg. of freedom   288
 Full point group                 C1      NOp   1
 Largest Abelian subgroup         C1      NOp   1
 Largest concise Abelian subgroup C1      NOp   1
                         Standard orientation:                         
 ---------------------------------------------------------------------
 Center     Atomic      Atomic             Coordinates (Angstroms)
 Number     Number       Type             X           Y           Z
 ---------------------------------------------------------------------
      1          6           0        2.738518   -5.133786   -1.180804
      2          6           0        3.622186   -4.296442   -0.264133
      3          1           0        2.965480   -6.195120   -1.078958
      4          1           0        1.682293   -4.990967   -0.951565
      5          1           0        2.889431   -4.857456   -2.226325
      6          6           0        3.413310   -2.779530   -0.413231
      7          1           0        3.447202   -4.580562    0.777612
      8          1           0        4.672185   -4.518832   -0.469138
      9          6           0        4.391637   -2.016103    0.498681
     10          1           0        3.653751   -2.520057   -1.449705
     11          1           0        4.020497   -2.030932    1.527347
     12          1           0        5.338229   -2.562668    0.515551
     13          6           0        4.711675   -0.569360    0.086903
     14          6           0        5.764665    0.032363    1.029667
     15          1           0        5.153772   -0.609317   -0.914301
     16          1           0        5.352986    0.077126    2.041822
     17          1           0        6.617279   -0.649754    1.075876
     18          6           0        6.241099    1.417102    0.607882
     19          1           0        7.010173    1.789980    1.284311
     20          1           0        6.663320    1.394516   -0.398847
     21          1           0        5.418466    2.132987    0.605662
     22          6           0        3.478645    0.302993   -0.004746
     23          6           0        3.104600    0.888764   -1.207629
     24          6           0        2.652941    0.491408    1.099955
     25          6           0        1.926230    1.611136   -1.312721
     26          1           0        3.723017    0.743376   -2.085082
     27          6           0        1.474153    1.206916    0.997584
     28          1           0        2.902408    0.025195    2.044516
     29          6           0        1.096974    1.787453   -0.211451
     30          1           0        1.628302    2.016679   -2.271835
     31          1           0        0.814930    1.275736    1.853348
     32          6           0        1.960642   -2.407810   -0.182319
     33          6           0        1.194770   -1.846682   -1.196192
     34          6           0        1.358528   -2.604151    1.059372
     35          6           0       -0.130564   -1.492398   -0.990923
     36          1           0        1.652025   -1.647614   -2.156910
     37          6           0        0.036761   -2.256428    1.271416
     38          1           0        1.935289   -3.011068    1.881010
     39          6           0       -0.733921   -1.727385    0.238694
     40          1           0       -0.687391   -0.990396   -1.775137
     41          1           0       -0.402065   -2.373743    2.254665
     42          6           0       -2.175243   -1.394678    0.466459
     43          1           0       -2.334802   -1.115803    1.502996
     44          1           0       -2.478710   -0.557271   -0.151699
     45          6           0       -0.226255    2.475734   -0.352311
     46          1           0       -0.560779    2.413990   -1.382893
     47          1           0       -1.002180    2.008150    0.266917
     48          6           0       -4.458086   -2.211020    0.902554
     49          1           0       -5.211622   -2.866265    0.463404
     50          6           0       -4.388998   -2.398015    2.405355
     51          1           0       -4.691111   -1.160475    0.695190
     52          6           0       -2.683519   -3.878913    0.582680
     53          6           0       -1.744772   -4.629798   -0.350426
     54          1           0       -2.219207   -3.742159    1.554941
     55          1           0       -3.583493   -4.474798    0.729122
     56          6           0       -3.476538   -2.537391   -1.327927
     57          6           0       -4.347013   -1.401719   -1.836922
     58          1           0       -2.512148   -2.541750   -1.830977
     59          1           0       -3.960713   -3.495113   -1.520273
     60          6           0       -1.736136    4.378357   -0.087893
     61          1           0       -1.787943    5.354743    0.396265
     62          6           0       -2.303613    4.442309   -1.491543
     63          1           0       -2.286145    3.638065    0.495602
     64          6           0        0.206019    4.220939    1.414509
     65          6           0       -0.660704    3.678570    2.533892
     66          1           0        1.206152    3.801194    1.475039
     67          1           0        0.292819    5.304977    1.496664
     68          6           0        0.537681    4.798119   -0.947860
     69          6           0        2.029171    4.926707   -0.677126
     70          1           0        0.365239    4.375764   -1.934275
     71          1           0        0.087307    5.790073   -0.931252
     72          7           0       -3.171395   -2.517254    0.151534
     73          7           0       -0.273540    3.958947    0.009414
     74          1           0        2.237374    5.521174    0.209838
     75          1           0        2.467738    5.447555   -1.528340
     76          1           0        2.526479    3.966436   -0.582199
     77          1           0       -0.103001    3.800692    3.462560
     78          1           0       -0.916858    2.630719    2.408868
     79          1           0       -1.599076    4.219108    2.628370
     80          1           0       -2.245870    3.480290   -1.993698
     81          1           0       -1.857780    5.224406   -2.106490
     82          1           0       -3.365446    4.659126   -1.386103
     83          1           0       -5.386997   -1.528461   -1.544559
     84          1           0       -4.300391   -1.427884   -2.926178
     85          1           0       -4.029471   -0.410313   -1.504447
     86          1           0       -4.268432   -3.435810    2.716547
     87          1           0       -5.336470   -2.036735    2.803210
     88          1           0       -3.609983   -1.783847    2.855733
     89          1           0       -1.442224   -5.539715    0.168335
     90          1           0       -0.846359   -4.071927   -0.593577
     91          1           0       -2.234097   -4.930127   -1.274500
     92          6           0       -3.567765    1.324643    0.499002
     93          8           0       -2.620182    1.718975    1.307661
     94          8           0       -3.394999    1.529912   -0.771210
     95          8           0       -4.583327    0.729502    0.939358
     96          8           0       -1.721561    0.901080   -2.610801
     97          1           0       -2.297133    0.885922   -3.373892
     98          1           0       -2.333627    1.139911   -1.845557
 ---------------------------------------------------------------------
 Rotational constants (GHZ):           0.0972507           0.0858095           0.0532272
 Leave Link  202 at Tue May  7 19:13:05 2024, MaxMem=  2281701376 cpu:               3.3 elap:               0.2
 (Enter /packages/apps/gaussian/g16/g16/l301.exe)
 Standard basis: 6-311+G(2d,2p) (5D, 7F)
 Ernie: Thresh=  0.10000D-02 Tol=  0.10000D-05 Strict=F.
 There are  1682 symmetry adapted cartesian basis functions of A   symmetry.
 There are  1602 symmetry adapted basis functions of A   symmetry.
  1602 basis functions,  2318 primitive gaussians,  1682 cartesian basis functions
   154 alpha electrons      154 beta electrons
       nuclear repulsion energy      5409.8744245453 Hartrees.
 IExCor= 4639 DFT=T Ex+Corr=wB97XD ExCW=0 ScaHFX=  1.000000
 ScaDFX=  1.000000  1.000000  1.000000  1.000000 ScalE2=  1.000000  1.000000
 IRadAn=      5 IRanWt=     -1 IRanGd=            0 ICorTp=0 IEmpDi=121
 HFx  wShort=  0.000000 wLong=  0.200000 cFull=  0.222036 cShort=  0.000000 cLong=  0.777964
 DFx  wShort=  0.000000 wLong=  0.200000 cFull=  0.000000 cShort=  0.000000 cLong=  1.000000
 NAtoms=   98 NActive=   98 NUniq=   98 SFac= 1.00D+00 NAtFMM=   60 NAOKFM=T Big=T
 Integral buffers will be    131072 words long.
 Raffenetti 2 integral format.
 Two-electron integral symmetry is turned on.
 R6Disp:  Grimme-D2 Dispersion energy=       -0.1252049047 Hartrees.
 Nuclear repulsion after empirical dispersion term =     5409.7492196406 Hartrees.
 Leave Link  301 at Tue May  7 19:13:06 2024, MaxMem=  2281701376 cpu:               5.3 elap:               0.3
 (Enter /packages/apps/gaussian/g16/g16/l302.exe)
 NPDir=0 NMtPBC=     1 NCelOv=     1 NCel=       1 NClECP=     1 NCelD=      1
         NCelK=      1 NCelE2=     1 NClLst=     1 CellRange=     0.0.
 One-electron integrals computed using PRISM.
 One-electron integral symmetry used in STVInt
 NBasis=  1602 RedAO= T EigKep=  1.00D-06  NBF=  1602
 NBsUse=  1591 1.00D-06 EigRej=  9.06D-07 NBFU=  1591
 Precomputing XC quadrature grid using
 IXCGrd= 4 IRadAn=           5 IRanWt=          -1 IRanGd=           0 AccXCQ= 0.00D+00.
 Generated NRdTot=       0 NPtTot=           0 NUsed=           0 NTot=          32
 NSgBfM=  1546  1546  1546  1546  1546 MxSgAt=    98 MxSgA2=    98.
 Leave Link  302 at Tue May  7 19:13:16 2024, MaxMem=  2281701376 cpu:             360.2 elap:               9.7
 (Enter /packages/apps/gaussian/g16/g16/l303.exe)
 DipDrv:  MaxL=1.
 Leave Link  303 at Tue May  7 19:13:17 2024, MaxMem=  2281701376 cpu:              14.5 elap:               0.7
 (Enter /packages/apps/gaussian/g16/g16/l401.exe)
 ExpMin= 4.38D-02 ExpMax= 8.59D+03 ExpMxC= 1.30D+03 IAcc=3 IRadAn=         5 AccDes= 0.00D+00
 Harris functional with IExCor= 4639 and IRadAn=       5 diagonalized for initial guess.
 HarFok:  IExCor= 4639 AccDes= 0.00D+00 IRadAn=         5 IDoV= 1 UseB2=F ITyADJ=14
 ICtDFT=  3500011 ScaDFX=  1.000000  1.000000  1.000000  1.000000
 FoFCou: FMM=F IPFlag=           0 FMFlag=      100000 FMFlg1=        2001
         NFxFlg=           0 DoJE=T BraDBF=F KetDBF=T FulRan=T
         wScrn=  0.000000 ICntrl=       500 IOpCl=  0 I1Cent=   200000004 NGrid=           0
         NMat0=    1 NMatS0=      1 NMatT0=    0 NMatD0=    1 NMtDS0=    0 NMtDT0=    0
 Petite list used in FoFCou.
 Harris En= -1661.86560151152    
 JPrj=0 DoOrth=F DoCkMO=F.
 Leave Link  401 at Tue May  7 19:13:25 2024, MaxMem=  2281701376 cpu:             304.5 elap:               7.9
 (Enter /packages/apps/gaussian/g16/g16/l502.exe)
 Integral symmetry usage will be decided dynamically.
 Closed shell SCF:
 Using DIIS extrapolation, IDIIS=  1040.
 NGot=  2281701376 LenX=  2275960374 LenY=  2273129568
 Requested convergence on RMS density matrix=1.00D-08 within 128 cycles.
 Requested convergence on MAX density matrix=1.00D-06.
 Requested convergence on             energy=1.00D-06.
 No special actions if energy rises.
[...]
 Alpha virt. eigenvalues --    2.15897   2.16343   2.16860   2.17944   2.18499
 Alpha virt. eigenvalues --    2.19186   2.20712   2.21752   2.22461   2.23009
 Alpha virt. eigenvalues --    2.23507   2.24888   2.25917   2.27713   2.28170
 Alpha virt. eigenvalues --    2.28417   2.30283   2.30416   2.33202   2.35428
 Alpha virt. eigenvalues --    2.36863   2.41841   2.46013   2.46822   2.52932
 Alpha virt. eigenvalues --    2.55740   2.58587   2.59858   2.63412   2.67360
 Alpha virt. eigenvalues --    2.75454   2.77050   2.77367   2.79347   2.82783
 Alpha virt. eigenvalues --    2.84776   2.85873   2.87356   2.87999   2.88831
 Alpha virt. eigenvalues --    2.89283   2.90538   2.91736   2.92894   2.93875
 Alpha virt. eigenvalues --    2.95061   2.96097   2.96967   2.97204   2.97995
 Alpha virt. eigenvalues --    2.98855   2.99132   2.99703   2.99932   3.01216
 Alpha virt. eigenvalues --    3.01389   3.01691   3.02074   3.02592   3.03176
 Alpha virt. eigenvalues --    3.03568   3.04399   3.05088   3.05221   3.05557
 Alpha virt. eigenvalues --    3.05977   3.06896   3.07196   3.07840   3.07976
 Alpha virt. eigenvalues --    3.08224   3.08282   3.09711   3.10229   3.10727
 Alpha virt. eigenvalues --    3.11256   3.11515   3.12752   3.13534   3.13929
 Alpha virt. eigenvalues --    3.14035   3.14448   3.16530   3.17045   3.17723
 Alpha virt. eigenvalues --    3.18324   3.18417   3.20172   3.20595   3.20970
 Alpha virt. eigenvalues --    3.21213   3.21953   3.22570   3.22701   3.23328
 Alpha virt. eigenvalues --    3.23623   3.24100   3.24249   3.24687   3.25702
 Alpha virt. eigenvalues --    3.26258   3.26675   3.27067   3.27412   3.28050
 Alpha virt. eigenvalues --    3.28587   3.29713   3.30268   3.30565   3.31050
 Alpha virt. eigenvalues --    3.31217   3.32043   3.32467   3.32754   3.32908
 Alpha virt. eigenvalues --    3.34175   3.34603   3.34899   3.35106   3.35560
 Alpha virt. eigenvalues --    3.35652   3.36841   3.37091   3.37432   3.37647
 Alpha virt. eigenvalues --    3.38578   3.39012   3.39203   3.39653   3.40287
 Alpha virt. eigenvalues --    3.40541   3.40919   3.41364   3.41983   3.42149
 Alpha virt. eigenvalues --    3.42369   3.42966   3.43467   3.43501   3.44243
 Alpha virt. eigenvalues --    3.44603   3.44760   3.44885   3.45558   3.45654
 Alpha virt. eigenvalues --    3.46140   3.46702   3.47126   3.47248   3.47583
 Alpha virt. eigenvalues --    3.48147   3.48424   3.48767   3.49202   3.49379
 Alpha virt. eigenvalues --    3.49627   3.49971   3.50048   3.51066   3.51379
 Alpha virt. eigenvalues --    3.51884   3.52705   3.52994   3.53199   3.54006
 Alpha virt. eigenvalues --    3.54229   3.54480   3.55004   3.55192   3.55454
 Alpha virt. eigenvalues --    3.55881   3.56025   3.56347   3.56852   3.56881
 Alpha virt. eigenvalues --    3.57144   3.57436   3.57831   3.58306   3.58941
 Alpha virt. eigenvalues --    3.59273   3.60037   3.60342   3.60481   3.60690
 Alpha virt. eigenvalues --    3.61006   3.61368   3.61756   3.62231   3.62612
 Alpha virt. eigenvalues --    3.62661   3.62853   3.63166   3.63509   3.63928
 Alpha virt. eigenvalues --    3.64061   3.64433   3.64590   3.65018   3.65351
 Alpha virt. eigenvalues --    3.66547   3.66620   3.66803   3.67470   3.67767
 Alpha virt. eigenvalues --    3.68200   3.68661   3.68712   3.68957   3.69193
 Alpha virt. eigenvalues --    3.69357   3.69842   3.69900   3.70117   3.70343
 Alpha virt. eigenvalues --    3.70806   3.70941   3.71456   3.71868   3.72223
 Alpha virt. eigenvalues --    3.72490   3.72761   3.73058   3.73233   3.73673
 Alpha virt. eigenvalues --    3.74029   3.74381   3.74925   3.75044   3.75776
 Alpha virt. eigenvalues --    3.75817   3.75916   3.76386   3.76806   3.76941
 Alpha virt. eigenvalues --    3.77274   3.77604   3.77976   3.78429   3.78692
 Alpha virt. eigenvalues --    3.78843   3.79312   3.79602   3.79975   3.80601
 Alpha virt. eigenvalues --    3.80702   3.80930   3.81027   3.81710   3.82211
 Alpha virt. eigenvalues --    3.82581   3.82792   3.82801   3.83590   3.83673
 Alpha virt. eigenvalues --    3.83931   3.84241   3.84480   3.84753   3.85092
 Alpha virt. eigenvalues --    3.85428   3.85551   3.85917   3.86328   3.86550
 Alpha virt. eigenvalues --    3.86872   3.87393   3.87712   3.88308   3.88547
 Alpha virt. eigenvalues --    3.89385   3.89804   3.90408   3.90607   3.90660
 Alpha virt. eigenvalues --    3.91298   3.91712   3.91754   3.92029   3.92133
 Alpha virt. eigenvalues --    3.92671   3.92966   3.93502   3.93860   3.94536
 Alpha virt. eigenvalues --    3.94746   3.94855   3.95204   3.95434   3.95515
 Alpha virt. eigenvalues --    3.95861   3.96300   3.96750   3.97212   3.97663
 Alpha virt. eigenvalues --    3.98043   3.98522   3.98827   3.99336   3.99563
 Alpha virt. eigenvalues --    3.99908   4.00226   4.00782   4.01267   4.01454
 Alpha virt. eigenvalues --    4.01873   4.02033   4.02356   4.02996   4.03155
 Alpha virt. eigenvalues --    4.03248   4.03934   4.04719   4.05049   4.05469
 Alpha virt. eigenvalues --    4.06323   4.06600   4.06969   4.07287   4.07493
 Alpha virt. eigenvalues --    4.07564   4.08132   4.08706   4.09182   4.09679
 Alpha virt. eigenvalues --    4.09814   4.10042   4.10492   4.10742   4.10831
 Alpha virt. eigenvalues --    4.10882   4.11986   4.12148   4.12426   4.12871
 Alpha virt. eigenvalues --    4.13061   4.13189   4.13621   4.14162   4.14317
 Alpha virt. eigenvalues --    4.14768   4.15325   4.15418   4.15761   4.16033
 Alpha virt. eigenvalues --    4.16291   4.16685   4.16986   4.17288   4.17665
 Alpha virt. eigenvalues --    4.17817   4.18353   4.19113   4.19493   4.19575
 Alpha virt. eigenvalues --    4.20137   4.20341   4.20517   4.20612   4.21219
 Alpha virt. eigenvalues --    4.21418   4.21879   4.22215   4.22389   4.22744
 Alpha virt. eigenvalues --    4.22826   4.23068   4.23545   4.23687   4.24165
 Alpha virt. eigenvalues --    4.24638   4.24920   4.25010   4.25481   4.25840
 Alpha virt. eigenvalues --    4.26256   4.26393   4.26606   4.27114   4.27456
 Alpha virt. eigenvalues --    4.27659   4.27923   4.28272   4.28549   4.28598
 Alpha virt. eigenvalues --    4.29167   4.29493   4.29993   4.30073   4.30560
 Alpha virt. eigenvalues --    4.31093   4.31366   4.31868   4.32254   4.32396
 Alpha virt. eigenvalues --    4.32741   4.33001   4.33199   4.33937   4.34455
 Alpha virt. eigenvalues --    4.34862   4.35378   4.35936   4.36122   4.36760
 Alpha virt. eigenvalues --    4.37083   4.37724   4.37922   4.38229   4.38396
 Alpha virt. eigenvalues --    4.38601   4.38819   4.38895   4.39670   4.39984
 Alpha virt. eigenvalues --    4.40162   4.40600   4.41213   4.41535   4.42665
 Alpha virt. eigenvalues --    4.42840   4.43126   4.43316   4.43692   4.44585
 Alpha virt. eigenvalues --    4.44685   4.45288   4.45577   4.46141   4.46342
 Alpha virt. eigenvalues --    4.46789   4.47220   4.47487   4.47804   4.48353
 Alpha virt. eigenvalues --    4.48714   4.49537   4.49941   4.49985   4.50830
 Alpha virt. eigenvalues --    4.50979   4.51319   4.52259   4.52526   4.53192
 Alpha virt. eigenvalues --    4.53701   4.54168   4.54321   4.55419   4.55965
 Alpha virt. eigenvalues --    4.56392   4.57846   4.57965   4.58469   4.59133
 Alpha virt. eigenvalues --    4.59358   4.60216   4.60465   4.60969   4.62478
 Alpha virt. eigenvalues --    4.63516   4.64043   4.64429   4.64802   4.65638
 Alpha virt. eigenvalues --    4.66250   4.66701   4.67595   4.68034   4.68543
 Alpha virt. eigenvalues --    4.69000   4.69858   4.70371   4.71262   4.71825
 Alpha virt. eigenvalues --    4.72790   4.73250   4.74747   4.76679   4.77343
 Alpha virt. eigenvalues --    4.77963   4.81155   4.81612   4.83219   4.84717
 Alpha virt. eigenvalues --    4.85411   4.85576   4.87162   4.87387   4.93337
 Alpha virt. eigenvalues --    4.93471   4.94980   4.95526   4.97782   4.98610
 Alpha virt. eigenvalues --    4.98914   5.01225   5.03135   5.03796   5.03876
 Alpha virt. eigenvalues --    5.05124   5.05385   5.06180   5.06553   5.07029
 Alpha virt. eigenvalues --    5.09358   5.14298   5.15507   5.15833   5.16357
 Alpha virt. eigenvalues --    5.16683   5.17402   5.18172   5.18843   5.19828
 Alpha virt. eigenvalues --    5.21518   5.21952   5.22233   5.22822   5.22886
 Alpha virt. eigenvalues --    5.23407   5.23590   5.24132   5.24557   5.24758
 Alpha virt. eigenvalues --    5.25634   5.25971   5.26809   5.27302   5.27896
 Alpha virt. eigenvalues --    5.28639   5.28897   5.29430   5.29870   5.31626
 Alpha virt. eigenvalues --    5.32021   5.32300   5.32965   5.35029   5.36160
 Alpha virt. eigenvalues --    5.36534   5.37066   5.37916   5.46447   5.48396
 Alpha virt. eigenvalues --    5.49204   5.49788   5.52847   5.55535   5.56950
 Alpha virt. eigenvalues --    5.58328   5.60139   5.60616   5.62125   5.68515
 Alpha virt. eigenvalues --    5.73688   5.76532   5.83217   5.83824   5.86154
 Alpha virt. eigenvalues --    5.86490   5.88472   5.93449   5.95359   6.31891
 Alpha virt. eigenvalues --    6.35985   6.38747   7.06896   7.11246   7.11797
 Alpha virt. eigenvalues --    7.13239   7.17639   7.24504   7.27892   7.28968
 Alpha virt. eigenvalues --    7.29898   7.34542   7.40344   7.44463   7.51127
 Alpha virt. eigenvalues --    7.56521   7.57973   7.60450   7.63785   7.75576
 Alpha virt. eigenvalues --    7.78049   7.83091  23.93629  23.95644  24.04305
 Alpha virt. eigenvalues --   24.04487  24.04838  24.05796  24.09711  24.09945
 Alpha virt. eigenvalues --   24.11461  24.11629  24.12618  24.14806  24.17690
 Alpha virt. eigenvalues --   24.19403  24.20337  24.22167  24.22786  24.23307
 Alpha virt. eigenvalues --   24.23801  24.25305  24.26169  24.26666  24.27300
 Alpha virt. eigenvalues --   24.28023  24.28602  24.33998  24.34975  24.35671
 Alpha virt. eigenvalues --   24.37961  24.38313  24.41606  24.46672  24.50177
 Alpha virt. eigenvalues --   24.51325  35.73161  35.74505  50.22436  50.35964
 Alpha virt. eigenvalues --   50.36693  50.45303
          Condensed to atoms (all electrons):
 Mulliken charges:
               1
     1  C   -0.432053
     2  C   -0.257108
     3  H    0.123435
     4  H    0.122904
     5  H    0.117090
     6  C    0.220966
     7  H    0.128548
     8  H    0.120600
     9  C   -0.610222
    10  H    0.104142
    11  H    0.143693
    12  H    0.123106
    13  C    0.095102
    14  C   -0.225507
    15  H    0.117310
    16  H    0.126046
    17  H    0.114183
    18  C   -0.460950
    19  H    0.121960
    20  H    0.111706
    21  H    0.125930
    22  C    0.267453
    23  C   -0.318684
    24  C   -0.332657
    25  C   -0.443270
    26  H    0.131832
    27  C   -0.416921
    28  H    0.134419
    29  C    0.294242
    30  H    0.149775
    31  H    0.183614
    32  C    0.547280
    33  C   -0.298574
    34  C   -0.465444
    35  C   -0.400287
    36  H    0.136749
    37  C   -0.350359
    38  H    0.138473
    39  C    0.458491
    40  H    0.209383
    41  H    0.147179
    42  C   -0.676976
    43  H    0.234079
    44  H    0.111038
    45  C   -0.690813
    46  H    0.194667
    47  H    0.287745
    48  C   -0.130723
    49  H    0.153752
    50  C   -0.391933
    51  H    0.264727
    52  C    0.121903
    53  C   -0.590956
    54  H    0.174481
    55  H    0.174362
    56  C   -0.018499
    57  C   -0.618384
    58  H    0.183970
    59  H    0.158684
    60  C    0.072439
    61  H    0.151948
    62  C   -0.503218
    63  H    0.209086
    64  C   -0.015069
    65  C   -0.562510
    66  H    0.172464
    67  H    0.159074
    68  C    0.102827
    69  C   -0.566436
    70  H    0.178909
    71  H    0.170245
    72  N    0.154414
    73  N    0.234061
    74  H    0.134353
    75  H    0.136980
    76  H    0.165426
    77  H    0.137526
    78  H    0.226265
    79  H    0.149014
    80  H    0.176036
    81  H    0.119444
    82  H    0.162033
    83  H    0.146188
    84  H    0.123745
    85  H    0.159227
    86  H    0.116315
    87  H    0.149490
    88  H    0.162630
    89  H    0.141590
    90  H    0.155634
    91  H    0.141112
    92  C    0.886264
    93  O   -0.783212
    94  O   -0.858825
    95  O   -0.678830
    96  O   -0.651160
    97  H    0.240406
    98  H    0.439414
 Sum of Mulliken charges =  -0.00000
 Mulliken charges with hydrogens summed into heavy atoms:
               1
     1  C   -0.068624
     2  C   -0.007959
     6  C    0.325108
     9  C   -0.343423
    13  C    0.212411
    14  C    0.014722
    18  C   -0.101354
    22  C    0.267453
    23  C   -0.186852
    24  C   -0.198238
    25  C   -0.293495
    27  C   -0.233308
    29  C    0.294242
    32  C    0.547280
    33  C   -0.161825
    34  C   -0.326971
    35  C   -0.190904
    37  C   -0.203180
    39  C    0.458491
    42  C   -0.331859
    45  C   -0.208401
    48  C    0.287757
    50  C    0.036502
    52  C    0.470746
    53  C   -0.152620
    56  C    0.324154
    57  C   -0.189223
    60  C    0.433473
    62  C   -0.045705
    64  C    0.316470
    65  C   -0.049705
    68  C    0.451982
    69  C   -0.129677
    72  N    0.154414
    73  N    0.234061
    92  C    0.886264
    93  O   -0.783212
    94  O   -0.858825
    95  O   -0.678830
    96  O    0.028661
 Electronic spatial extent (au):  <R**2>=          21485.4101
 Charge=             -0.0000 electrons
 Dipole moment (field-independent basis, Debye):
    X=              8.3470    Y=             -3.0010    Z=             -2.1956  Tot=              9.1378
 Quadrupole moment (field-independent basis, Debye-Ang):
   XX=           -270.7777   YY=           -195.0349   ZZ=           -247.1283
   XY=             32.4573   XZ=             10.9920   YZ=             -7.6479
 Traceless Quadrupole moment (field-independent basis, Debye-Ang):
   XX=            -33.1307   YY=             42.6121   ZZ=             -9.4814
   XY=             32.4573   XZ=             10.9920   YZ=             -7.6479
 Octapole moment (field-independent basis, Debye-Ang**2):
  XXX=            108.9956  YYY=            163.2372  ZZZ=            -21.5765  XYY=            -69.1469
  XXY=           -150.7632  XXZ=            -60.5742  XZZ=             -1.8569  YZZ=              0.2827
  YYZ=              0.0442  XYZ=             14.7732
 Hexadecapole moment (field-independent basis, Debye-Ang**3):
 XXXX=         -14623.3915 YYYY=         -11330.1968 ZZZZ=          -2480.2006 XXXY=            458.9068
 XXXZ=            174.0283 YYYX=            136.6598 YYYZ=            -82.7457 ZZZX=             78.9075
 ZZZY=            -48.5603 XXYY=          -4233.5813 XXZZ=          -2756.6677 YYZZ=          -2450.4898
 XXYZ=            -72.0205 YYXZ=            -18.2812 ZZXY=             68.8224
 N-N= 5.419756123532D+03 E-N=-1.489284414390D+04  KE= 1.733548756788D+03
 No NMR shielding tensors so no spin-rotation constants.
 Leave Link  601 at Thu May  9 05:26:36 2024, MaxMem=  2281701376 cpu:              81.0 elap:               2.5
 (Enter /packages/apps/gaussian/g16/g16/l9999.exe)
 1\1\GINC-C099\FOpt\RwB97XD\6-311+G(2d,2p)\C34H58N2O4\MDTURNE9\09-May-2
 024\0\\#p opt=calcfc wb97xd/6-311+g(2d,2p) geom=connectivity\\Required
 \\0,1\C,-2.9725612807,-5.0971465536,1.2079218213\C,-3.7963102141,-4.25
 28602299,0.2430655665\H,-3.2202411268,-6.154292444,1.1110070143\H,-1.9
 043564516,-4.98229668,1.022348813\H,-3.161127501,-4.8020866467,2.24212
 00246\C,-3.557940275,-2.7393338487,0.3808110919\H,-3.5848378652,-4.556
 4337289,-0.7863931532\H,-4.8590784463,-4.4474400322,0.4061036353\C,-4.
 4746291249,-1.9648472394,-0.584632377\H,-3.8376798592,-2.4593876568,1.
 4018837041\H,-4.0492827788,-1.9891595313,-1.5919649359\H,-5.4276321827
 ,-2.496380517,-0.650401434\C,-4.7926545789,-0.5118887281,-0.1940174773
 \C,-5.7827535458,0.1038568662,-1.1941181176\H,-5.2902893573,-0.5428095
 793,0.781110944\H,-5.315304717,0.1405649842,-2.1821192595\H,-6.6419315
 026,-0.565254135,-1.2866988165\C,-6.260358943,1.4964978696,-0.80066659
 27\H,-6.9848790026,1.8800504797,-1.5190344477\H,-6.738091265,1.4820387
 671,0.1810805773\H,-5.4280609455,2.1994543604,-0.7532315917\C,-3.55362
 80475,0.3424492557,-0.0341896414\C,-3.2368266799,0.9188796948,1.189384
 8457\C,-2.6691429296,0.5277437612,-1.0934268629\C,-2.0591969318,1.6307
 287809,1.3594381503\H,-3.9020680561,0.7761729604,2.0324535621\C,-1.492
 0004372,1.233890305,-0.9257213023\H,-2.874840398,0.0685472915,-2.05211
 01321\C,-1.1724410234,1.806574928,0.3039760339\H,-1.8089354525,2.02973
 16084,2.3348777789\H,-0.783490855,1.3062244855,-1.7409419508\C,-2.0887
 100483,-2.4032348755,0.2094702179\C,-1.3562332943,-1.8367943705,1.2446
 626248\C,-1.4360777864,-2.6393700865,-0.9991840519\C,-0.0182094419,-1.
 5060798463,1.0893713034\H,-1.8501496713,-1.6117071381,2.1810614969\C,-
 0.1000918742,-2.3187927394,-1.1589485006\H,-1.9824803185,-3.0583031264
 ,-1.8353938865\C,0.6335588578,-1.7721059075,-0.1089961816\H,0.51460498
 12,-0.9966290761,1.8857075974\H,0.3776038467,-2.4819191,-2.1176511033\
 C,2.0824706691,-1.4345893551,-0.2740917307\H,2.2919259924,-1.105319470
 1,-1.2849193217\H,2.3525734356,-0.6121862207,0.3778981418\C,0.15754178
 15,2.4645819902,0.5099080546\H,0.4500472887,2.3826560356,1.551774338\H
 ,0.9402137477,1.9748956799,-0.0945110371\C,4.367498007,-2.2647661239,-
 0.6980798036\H,5.1163963788,-2.9186645387,-0.2496304621\C,4.3067866609
 ,-2.4680082583,-2.1984267655\H,4.5993688684,-1.2078075775,-0.510782911
 7\C,2.5926349497,-3.9275209145,-0.3467644344\C,1.6379630141,-4.6481720
 108,0.5938242459\H,2.1424021607,-3.8198321433,-1.3290905022\H,3.493389
 4288,-4.5290172308,-0.4637100268\C,3.3791231242,-2.5422137583,1.534919
 9217\C,4.2638393731,-1.403927087,2.0137764966\H,2.4126914171,-2.517931
 2387,2.0341591222\H,3.8491124203,-3.5012854738,1.7541335578\C,1.740066
 3949,4.3082801655,0.281190554\H,1.8386465144,5.2849562365,-0.194976018
 2\C,2.2940519805,4.3385136605,1.6910419689\H,2.2667136981,3.5521282627
 ,-0.3007367466\C,-0.1894409724,4.2448469824,-1.2429430276\C,0.70722781
 13,3.7274793558,-2.3531417955\H,-1.1879144078,3.8257803718,-1.32976496
 41\H,-0.27782069,5.3302371975,-1.3012247223\C,-0.5229538976,4.80957044
 98,1.1222728405\C,-2.0101205017,4.9764005874,0.8492764656\H,-0.3636461
 687,4.3814490312,2.1083771711\H,-0.0461392308,5.789397085,1.1072481521
 \N,3.0772693204,-2.5563123595,0.0529981529\N,0.2634058646,3.9493667877
 ,0.1650906727\H,-2.2020347789,5.5744945814,-0.0388811544\H,-2.43791499
 9,5.5085432564,1.6989797037\H,-2.5305037574,4.0286793506,0.7526594584\
 H,0.1318691535,3.7502758095,-3.2789061219\H,1.0801373108,2.7184547946,
 -2.1715825933\H,1.5830248954,4.3589877131,-2.489142621\H,2.1692883148,
 3.3828571902,2.1929951648\H,1.8886283303,5.1479552766,2.2987862345\H,3
 .3685092517,4.4872936199,1.5980872029\H,5.3042052053,-1.5601364471,1.7
 368806903\H,4.2061201891,-1.3925041036,3.1028094508\H,3.9642922447,-0.
 4189671294,1.6428446528\H,4.1423496771,-3.5010936695,-2.5050553015\H,5
 .2715099652,-2.1494506616,-2.5903957383\H,3.5663898376,-1.8218885633,-
 2.6658790548\H,1.3455149281,-5.5760627918,0.1017933627\H,0.7353758027,
 -4.0824140894,0.801054191\H,2.1107928184,-4.9147332049,1.5365542805\C,
 3.3662598261,1.1994196411,-0.4270735333\O,2.3776057332,1.495753475,-1.
 2004509734\O,3.2442916229,1.4469558566,0.8566835235\O,4.4070177694,0.6
 324688424,-0.8621736056\O,1.6235823442,0.8197439331,2.7136886205\H,2.2
 201006763,0.7918835603,3.4600910961\H,2.2212847291,1.0680820596,1.9275
 514918\\Version=ES64L-G16RevA.03\State=1-A\HF=-1740.9442736\RMSD=4.351
 e-09\RMSF=6.431e-07\Dipole=-3.3361734,-1.11184,0.7472878\Quadrupole=-2
 6.2018093,32.6676943,-6.465885,-23.0745894,7.5341604,4.9521719\PG=C01 
 [X(C34H58N2O4)]\\@


 TOM, TOM, THE BURGLAR'S SON
 STOLE A MACHINE AND AWAY HE RUN
 THE JOB WAS NEAT, BUT TOM GOT BEAT
 BY THE TIME HE GOT HOME IT WAS OBSOLETE.
 Job cpu time:      55 days 20 hours 21 minutes 24.5 seconds.
 Elapsed time:       1 days 10 hours 13 minutes  9.0 seconds.
 File lengths (MBytes):  RWF=  56655 Int=      0 D2E=      0 Chk=    234 Scr=      1
 Normal termination of Gaussian 16 at Thu May  9 05:26:36 2024.
