 Entering Gaussian System, Link 0=g16
 Input=1water-v4-ofreq.gjf
 Output=1water-v4-ofreq.log
 Initial command:
 /packages/apps/gaussian/g16/g16/l1.exe "/scratch/mdturne9/3-5-methyl/oFreq/Gau-1426609.inp" -scrdir="/scratch/mdturne9/3-5-methyl/oFreq/"
 Entering Link 1 = /packages/apps/gaussian/g16/g16/l1.exe PID=   1426610.
  
 Copyright (c) 1988,1990,1992,1993,1995,1998,2003,2009,2016,
            Gaussian, Inc.  All Rights Reserved.
  
 This is part of the Gaussian(R) 16 program.  It is based on
 the Gaussian(R) 09 system (copyright 2009, Gaussian, Inc.),
 the Gaussian(R) 03 system (copyright 2003, Gaussian, Inc.),
 the Gaussian(R) 98 system (copyright 1998, Gaussian, Inc.),
 the Gaussian(R) 94 system (copyright 1995, Gaussian, Inc.),
 the Gaussian 92(TM) system (copyright 1992, Gaussian, Inc.),
 the Gaussian 90(TM) system (copyright 1990, Gaussian, Inc.),
 the Gaussian 88(TM) system (copyright 1988, Gaussian, Inc.),
 the Gaussian 86(TM) system (copyright 1986, Carnegie Mellon
 University), and the Gaussian 82(TM) system (copyright 1983,
 Carnegie Mellon University). Gaussian is a federally registered
 trademark of Gaussian, Inc.
  
 This software contains proprietary and confidential information,
 including trade secrets, belonging to Gaussian, Inc.
  
 This software is provided under written license and may be
 used, copied, transmitted, or stored only in accord with that
 written license.
  
 The following legend is applicable only to US Government
 contracts under FAR:
  
                    RESTRICTED RIGHTS LEGEND
  
 Use, reproduction and disclosure by the US Government is
 subject to restrictions as set forth in subparagraphs (a)
 and (c) of the Commercial Computer Software - Restricted
 Rights clause in FAR 52.227-19.
  
 Gaussian, Inc.
 340 Quinnipiac St., Bldg. 40, Wallingford CT 06492
  
  
 ---------------------------------------------------------------
 Warning -- This program may not be used in any manner that
 competes with the business of Gaussian, Inc. or will provide
 assistance to any competitor of Gaussian, Inc.  The licensee
 of this program is prohibited from giving any competitor of
 Gaussian, Inc. access to this program.  By using this program,
 the user acknowledges that Gaussian, Inc. is engaged in the
 business of creating and licensing software in the field of
 computational chemistry and represents and warrants to the
 licensee that it is not a competitor of Gaussian, Inc. and that
 it will not use this program in any manner prohibited above.
 ---------------------------------------------------------------
  

 Cite this work as:
 Gaussian 16, Revision A.03,
 M. J. Frisch, G. W. Trucks, H. B. Schlegel, G. E. Scuseria, 
 M. A. Robb, J. R. Cheeseman, G. Scalmani, V. Barone, 
 G. A. Petersson, H. Nakatsuji, X. Li, M. Caricato, A. V. Marenich, 
 J. Bloino, B. G. Janesko, R. Gomperts, B. Mennucci, H. P. Hratchian, 
 J. V. Ortiz, A. F. Izmaylov, J. L. Sonnenberg, D. Williams-Young, 
 F. Ding, F. Lipparini, F. Egidi, J. Goings, B. Peng, A. Petrone, 
 T. Henderson, D. Ranasinghe, V. G. Zakrzewski, J. Gao, N. Rega, 
 G. Zheng, W. Liang, M. Hada, M. Ehara, K. Toyota, R. Fukuda, 
 J. Hasegawa, M. Ishida, T. Nakajima, Y. Honda, O. Kitao, H. Nakai, 
 T. Vreven, K. Throssell, J. A. Montgomery, Jr., J. E. Peralta, 
 F. Ogliaro, M. J. Bearpark, J. J. Heyd, E. N. Brothers, K. N. Kudin, 
 V. N. Staroverov, T. A. Keith, R. Kobayashi, J. Normand, 
 K. Raghavachari, A. P. Rendell, J. C. Burant, S. S. Iyengar, 
 J. Tomasi, M. Cossi, J. M. Millam, M. Klene, C. Adamo, R. Cammi, 
 J. W. Ochterski, R. L. Martin, K. Morokuma, O. Farkas, 
 J. B. Foresman, and D. J. Fox, Gaussian, Inc., Wallingford CT, 2016.
 
 ******************************************
 Gaussian 16:  ES64L-G16RevA.03 25-Dec-2016
                19-Mar-2024 
 ******************************************
 %oldchk=1water-v3-ofreq.chk
 %nprocshared=20
 Will use up to   20 processors via shared memory.
 %mem=13GB
 %chk=1water-v4-ofreq.chk
 Copying data from "1water-v3-ofreq.chk" to current chk file "1water-v4-ofreq.chk"
 IOpt=  2 FromEx=T IUOpen= 4 IOptOp= 5 NList=   0 IFRang= 0 IUIn= 4 IUOut= 2.
 ---------------------------------------------------
 #p opt=readfc freq wb97xd/6-311+g(2d,2p) guess=read
 ---------------------------------------------------
 1/10=3,18=20,19=15,26=3,38=1/1,3;
 2/9=110,12=2,17=6,18=5,40=1/2;
 3/5=4,6=6,7=212,11=2,25=1,30=1,71=1,74=-58,116=-2/1,2,3;
 4/5=1/1;
 5/5=2,38=6/2;
 6/7=2,8=2,9=2,10=2,28=1/1;
 7//1,2,3,16;
 1/18=20,19=15,26=3/3(2);
 2/9=110/2;
 99//99;
 2/9=110/2;
 3/5=4,6=6,7=212,11=2,25=1,30=1,71=1,74=-58/1,2,3;
 4/5=5,16=3,69=1/1;
 5/5=2,38=5/2;
 7//1,2,3,16;
 1/18=20,19=15,26=3/3(-5);
 2/9=110/2;
 6/7=2,8=2,9=2,10=2,19=2,28=1/1;
 99/9=1/99;
 Leave Link    1 at Tue Mar 19 09:59:57 2024, MaxMem=  1744830464 cpu:              10.2 elap:               1.3
 (Enter /packages/apps/gaussian/g16/g16/l101.exe)
 -------------------------
 CARBONATE FROM NAKIE High
 -------------------------
 Symbolic Z-matrix:
 Charge =  0 Multiplicity = 1
 C                    -4.14127   3.37189  -1.95516 
 C                    -4.66516   2.45873  -0.85381 
 H                    -4.83038   4.19558  -2.14186 
 H                    -3.17213   3.79534  -1.69028 
 H                    -4.01584   2.82147  -2.88975 
 C                    -3.7716    1.23632  -0.58863 
 H                    -4.78463   3.02675   0.07334 
 H                    -5.66216   2.09967  -1.12083 
 C                    -4.39305   0.33007   0.49703 
 H                    -3.72278   0.6652   -1.52111 
 H                    -4.02704   0.63549   1.4804 
 H                    -5.47388   0.49124   0.51649 
 C                    -4.16847  -1.18134   0.31639 
 C                    -4.76592  -1.95482   1.5 
 H                    -4.72124  -1.47909  -0.5807 
 H                    -4.22428  -1.68644   2.41124 
 H                    -5.79548  -1.61874   1.64678 
 C                    -4.74285  -3.46725   1.31472 
 H                    -5.20235  -3.9736    2.16346 
 H                    -5.28965  -3.75853   0.41564 
 H                    -3.72144  -3.83634   1.21559 
 C                    -2.71935  -1.54607   0.07394 
 C                    -2.33467  -2.10691  -1.13774 
 C                    -1.72993  -1.28963   1.02132 
 C                    -1.00253  -2.3799   -1.40859 
 H                    -3.08529  -2.30931  -1.89188 
 C                    -0.39766  -1.54731   0.74935 
 H                    -1.99453  -0.82415   1.9623 
 C                    -0.01466  -2.10218  -0.47168 
 H                    -0.72688  -2.78357  -2.3756 
 H                     0.36874  -1.26198   1.45885 
 C                    -2.35476   1.64969  -0.23542 
 C                    -1.26772   1.26698  -1.01446 
 C                    -2.10644   2.39351   0.9149 
 C                     0.03112   1.55544  -0.629 
 H                    -1.43727   0.67285  -1.9032 
 C                    -0.81153   2.71287   1.28958 
 H                    -2.9304    2.70903   1.54322 
 C                     0.27451   2.28873   0.53059 
 H                     0.87841   1.18279  -1.19411 
 H                    -0.64218   3.26657   2.20606 
 C                     1.6838    2.49406   0.99053 
 H                     1.72015   2.67195   2.0655 
 H                     2.2781    1.59064   0.75591 
 C                     1.43808  -2.27779  -0.7989 
 H                     1.61153  -2.18773  -1.86969 
 H                     2.03835  -1.51787  -0.28009 
 C                     3.85782   3.50902   0.67068 
 H                     4.39089   4.39818   0.33955 
 H                     3.97859   3.37323   1.74276 
 H                     4.17798   2.62061   0.11915 
 C                     1.90298   4.94905   0.96941 
 H                     0.83262   5.02034   0.79165 
 H                     2.10173   4.94184   2.03856 
 H                     2.41204   5.79043   0.50491 
 C                     2.24047   3.74021  -1.11124 
 H                     2.59167   2.77778  -1.49684 
 H                     1.19572   3.92505  -1.34216 
 H                     2.85555   4.55891  -1.47953 
 C                     3.42531  -3.66002  -0.96856 
 H                     3.94034  -4.51664  -0.53918 
 H                     3.34739  -3.77196  -2.04799 
 H                     3.92363  -2.70129  -0.74583 
 C                     2.11945  -3.7386    1.0792 
 H                     2.81627  -2.98493   1.45644 
 H                     1.12406  -3.61307   1.49592 
 H                     2.49306  -4.733     1.31555 
 C                     1.24244  -4.74729  -0.94789 
 H                     0.25982  -4.75485  -0.48492 
 H                     1.14115  -4.62364  -2.02332 
 H                     1.76575  -5.67565  -0.73221 
 N                     2.40381   3.68914   0.37426 
 N                     2.03677  -3.62033  -0.40551 
 C                     3.67687   0.06265  -0.5869 
 O                     4.42137  -0.89178  -0.9546 
 O                     2.96737  -0.07084   0.52486 
 O                     3.55044   1.15107  -1.24551 
 O                     4.3384   -1.73053   2.0094 
 H                     5.08261  -1.83111   1.41302 
 H                     3.79718  -1.05311   1.50634 
 
 Add virtual bond connecting atoms H80        and O76        Dist= 3.06D+00.
 Add virtual bond connecting atoms O75        and H63        Dist= 3.57D+00.
 Add virtual bond connecting atoms O76        and H44        Dist= 3.43D+00.
 Add virtual bond connecting atoms O76        and H47        Dist= 3.59D+00.
 Add virtual bond connecting atoms O77        and H57        Dist= 3.60D+00.
 ITRead=  0  0  0  0  0  0  0  0  0  0  0  0  0  0  0  0  0  0  0  0
 ITRead=  0  0  0  0  0  0  0  0  0  0  0  0  0  0  0  0  0  0  0  0
 ITRead=  0  0  0  0  0  0  0  0  0  0  0  0  0  0  0  0  0  0  0  0
 ITRead=  0  0  0  0  0  0  0  0  0  0  0  0  0  0  0  0  0  0  0  0
 MicOpt= -1 -1 -1 -1 -1 -1 -1 -1 -1 -1 -1 -1 -1 -1 -1 -1 -1 -1 -1 -1
 MicOpt= -1 -1 -1 -1 -1 -1 -1 -1 -1 -1 -1 -1 -1 -1 -1 -1 -1 -1 -1 -1
 MicOpt= -1 -1 -1 -1 -1 -1 -1 -1 -1 -1 -1 -1 -1 -1 -1 -1 -1 -1 -1 -1
 MicOpt= -1 -1 -1 -1 -1 -1 -1 -1 -1 -1 -1 -1 -1 -1 -1 -1 -1 -1 -1 -1
 NAtoms=     80 NQM=       80 NQMF=       0 NMMI=      0 NMMIF=      0
                NMic=       0 NMicF=      0.
                    Isotopes and Nuclear Properties:
 (Nuclear quadrupole moments (NQMom) in fm**2, nuclear magnetic moments (NMagM)
  in nuclear magnetons)

  Atom         1           2           3           4           5           6           7           8           9          10
 IAtWgt=          12          12           1           1           1          12           1           1          12           1
 AtmWgt=  12.0000000  12.0000000   1.0078250   1.0078250   1.0078250  12.0000000   1.0078250   1.0078250  12.0000000   1.0078250
 NucSpn=           0           0           1           1           1           0           1           1           0           1
 AtZEff=  -0.0000000  -0.0000000  -0.0000000  -0.0000000  -0.0000000  -0.0000000  -0.0000000  -0.0000000  -0.0000000  -0.0000000
 NQMom=    0.0000000   0.0000000   0.0000000   0.0000000   0.0000000   0.0000000   0.0000000   0.0000000   0.0000000   0.0000000
 NMagM=    0.0000000   0.0000000   2.7928460   2.7928460   2.7928460   0.0000000   2.7928460   2.7928460   0.0000000   2.7928460
 AtZNuc=   6.0000000   6.0000000   1.0000000   1.0000000   1.0000000   6.0000000   1.0000000   1.0000000   6.0000000   1.0000000

  Atom        11          12          13          14          15          16          17          18          19          20
 IAtWgt=           1           1          12          12           1           1           1          12           1           1
 AtmWgt=   1.0078250   1.0078250  12.0000000  12.0000000   1.0078250   1.0078250   1.0078250  12.0000000   1.0078250   1.0078250
 NucSpn=           1           1           0           0           1           1           1           0           1           1
 AtZEff=  -0.0000000  -0.0000000  -0.0000000  -0.0000000  -0.0000000  -0.0000000  -0.0000000  -0.0000000  -0.0000000  -0.0000000
 NQMom=    0.0000000   0.0000000   0.0000000   0.0000000   0.0000000   0.0000000   0.0000000   0.0000000   0.0000000   0.0000000
 NMagM=    2.7928460   2.7928460   0.0000000   0.0000000   2.7928460   2.7928460   2.7928460   0.0000000   2.7928460   2.7928460
 AtZNuc=   1.0000000   1.0000000   6.0000000   6.0000000   1.0000000   1.0000000   1.0000000   6.0000000   1.0000000   1.0000000

  Atom        21          22          23          24          25          26          27          28          29          30
 IAtWgt=           1          12          12          12          12           1          12           1          12           1
 AtmWgt=   1.0078250  12.0000000  12.0000000  12.0000000  12.0000000   1.0078250  12.0000000   1.0078250  12.0000000   1.0078250
 NucSpn=           1           0           0           0           0           1           0           1           0           1
 AtZEff=  -0.0000000  -0.0000000  -0.0000000  -0.0000000  -0.0000000  -0.0000000  -0.0000000  -0.0000000  -0.0000000  -0.0000000
 NQMom=    0.0000000   0.0000000   0.0000000   0.0000000   0.0000000   0.0000000   0.0000000   0.0000000   0.0000000   0.0000000
 NMagM=    2.7928460   0.0000000   0.0000000   0.0000000   0.0000000   2.7928460   0.0000000   2.7928460   0.0000000   2.7928460
 AtZNuc=   1.0000000   6.0000000   6.0000000   6.0000000   6.0000000   1.0000000   6.0000000   1.0000000   6.0000000   1.0000000

  Atom        31          32          33          34          35          36          37          38          39          40
 IAtWgt=           1          12          12          12          12           1          12           1          12           1
 AtmWgt=   1.0078250  12.0000000  12.0000000  12.0000000  12.0000000   1.0078250  12.0000000   1.0078250  12.0000000   1.0078250
 NucSpn=           1           0           0           0           0           1           0           1           0           1
 AtZEff=  -0.0000000  -0.0000000  -0.0000000  -0.0000000  -0.0000000  -0.0000000  -0.0000000  -0.0000000  -0.0000000  -0.0000000
 NQMom=    0.0000000   0.0000000   0.0000000   0.0000000   0.0000000   0.0000000   0.0000000   0.0000000   0.0000000   0.0000000
 NMagM=    2.7928460   0.0000000   0.0000000   0.0000000   0.0000000   2.7928460   0.0000000   2.7928460   0.0000000   2.7928460
 AtZNuc=   1.0000000   6.0000000   6.0000000   6.0000000   6.0000000   1.0000000   6.0000000   1.0000000   6.0000000   1.0000000

  Atom        41          42          43          44          45          46          47          48          49          50
 IAtWgt=           1          12           1           1          12           1           1          12           1           1
 AtmWgt=   1.0078250  12.0000000   1.0078250   1.0078250  12.0000000   1.0078250   1.0078250  12.0000000   1.0078250   1.0078250
 NucSpn=           1           0           1           1           0           1           1           0           1           1
 AtZEff=  -0.0000000  -0.0000000  -0.0000000  -0.0000000  -0.0000000  -0.0000000  -0.0000000  -0.0000000  -0.0000000  -0.0000000
 NQMom=    0.0000000   0.0000000   0.0000000   0.0000000   0.0000000   0.0000000   0.0000000   0.0000000   0.0000000   0.0000000
 NMagM=    2.7928460   0.0000000   2.7928460   2.7928460   0.0000000   2.7928460   2.7928460   0.0000000   2.7928460   2.7928460
 AtZNuc=   1.0000000   6.0000000   1.0000000   1.0000000   6.0000000   1.0000000   1.0000000   6.0000000   1.0000000   1.0000000

  Atom        51          52          53          54          55          56          57          58          59          60
 IAtWgt=           1          12           1           1           1          12           1           1           1          12
 AtmWgt=   1.0078250  12.0000000   1.0078250   1.0078250   1.0078250  12.0000000   1.0078250   1.0078250   1.0078250  12.0000000
 NucSpn=           1           0           1           1           1           0           1           1           1           0
 AtZEff=  -0.0000000  -0.0000000  -0.0000000  -0.0000000  -0.0000000  -0.0000000  -0.0000000  -0.0000000  -0.0000000  -0.0000000
 NQMom=    0.0000000   0.0000000   0.0000000   0.0000000   0.0000000   0.0000000   0.0000000   0.0000000   0.0000000   0.0000000
 NMagM=    2.7928460   0.0000000   2.7928460   2.7928460   2.7928460   0.0000000   2.7928460   2.7928460   2.7928460   0.0000000
 AtZNuc=   1.0000000   6.0000000   1.0000000   1.0000000   1.0000000   6.0000000   1.0000000   1.0000000   1.0000000   6.0000000

  Atom        61          62          63          64          65          66          67          68          69          70
 IAtWgt=           1           1           1          12           1           1           1          12           1           1
 AtmWgt=   1.0078250   1.0078250   1.0078250  12.0000000   1.0078250   1.0078250   1.0078250  12.0000000   1.0078250   1.0078250
 NucSpn=           1           1           1           0           1           1           1           0           1           1
 AtZEff=  -0.0000000  -0.0000000  -0.0000000  -0.0000000  -0.0000000  -0.0000000  -0.0000000  -0.0000000  -0.0000000  -0.0000000
 NQMom=    0.0000000   0.0000000   0.0000000   0.0000000   0.0000000   0.0000000   0.0000000   0.0000000   0.0000000   0.0000000
 NMagM=    2.7928460   2.7928460   2.7928460   0.0000000   2.7928460   2.7928460   2.7928460   0.0000000   2.7928460   2.7928460
 AtZNuc=   1.0000000   1.0000000   1.0000000   6.0000000   1.0000000   1.0000000   1.0000000   6.0000000   1.0000000   1.0000000

  Atom        71          72          73          74          75          76          77          78          79          80
 IAtWgt=           1          14          14          12          16          16          16          16           1           1
 AtmWgt=   1.0078250  14.0030740  14.0030740  12.0000000  15.9949146  15.9949146  15.9949146  15.9949146   1.0078250   1.0078250
 NucSpn=           1           2           2           0           0           0           0           0           1           1
 AtZEff=  -0.0000000  -0.0000000  -0.0000000  -0.0000000  -0.0000000  -0.0000000  -0.0000000  -0.0000000  -0.0000000  -0.0000000
 NQMom=    0.0000000   2.0440000   2.0440000   0.0000000   0.0000000   0.0000000   0.0000000   0.0000000   0.0000000   0.0000000
 NMagM=    2.7928460   0.4037610   0.4037610   0.0000000   0.0000000   0.0000000   0.0000000   0.0000000   2.7928460   2.7928460
 AtZNuc=   1.0000000   7.0000000   7.0000000   6.0000000   8.0000000   8.0000000   8.0000000   8.0000000   1.0000000   1.0000000
 Leave Link  101 at Tue Mar 19 09:59:57 2024, MaxMem=  1744830464 cpu:               2.5 elap:               0.3
 (Enter /packages/apps/gaussian/g16/g16/l103.exe)

 GradGradGradGradGradGradGradGradGradGradGradGradGradGradGradGradGradGrad
 Berny optimization.
 Initialization pass.
 Force constant matrix read from checkpoint file:
 "1water-v4-ofreq.chk"
 NVar current= 479 chk= 479 common= 479.
                           ----------------------------
                           !    Initial Parameters    !
                           ! (Angstroms and Degrees)  !
 --------------------------                            --------------------------
 ! Name  Definition              Value          Derivative Info.                !
 --------------------------------------------------------------------------------
 ! R1    R(1,2)                  1.5236         D2E/DX2 =    0.2911             !
 ! R2    R(1,3)                  1.09           D2E/DX2 =    0.3414             !
 ! R3    R(1,4)                  1.0903         D2E/DX2 =    0.3419             !
 ! R4    R(1,5)                  1.0919         D2E/DX2 =    0.3375             !
 ! R5    R(2,6)                  1.5372         D2E/DX2 =    0.2772             !
 ! R6    R(2,7)                  1.0939         D2E/DX2 =    0.3312             !
 ! R7    R(2,8)                  1.0928         D2E/DX2 =    0.3329             !
 ! R8    R(6,9)                  1.5447         D2E/DX2 =    0.2639             !
 ! R9    R(6,10)                 1.0946         D2E/DX2 =    0.3275             !
 ! R10   R(6,32)                 1.5176         D2E/DX2 =    0.2829             !
 ! R11   R(9,11)                 1.0928         D2E/DX2 =    0.3344             !
 ! R12   R(9,12)                 1.093          D2E/DX2 =    0.3323             !
 ! R13   R(9,13)                 1.5386         D2E/DX2 =    0.2691             !
 ! R14   R(13,14)                1.535          D2E/DX2 =    0.2782             !
 ! R15   R(13,15)                1.095          D2E/DX2 =    0.3259             !
 ! R16   R(13,22)                1.5139         D2E/DX2 =    0.2849             !
 ! R17   R(14,16)                1.0935         D2E/DX2 =    0.3322             !
 ! R18   R(14,17)                1.0929         D2E/DX2 =    0.3329             !
 ! R19   R(14,18)                1.5239         D2E/DX2 =    0.2911             !
 ! R20   R(18,19)                1.0899         D2E/DX2 =    0.3418             !
 ! R21   R(18,20)                1.0919         D2E/DX2 =    0.3373             !
 ! R22   R(18,21)                1.0906         D2E/DX2 =    0.3411             !
 ! R23   R(22,23)                1.3895         D2E/DX2 =    0.3957             !
 ! R24   R(22,24)                1.3936         D2E/DX2 =    0.379              !
 ! R25   R(23,25)                1.3865         D2E/DX2 =    0.3956             !
 ! R26   R(23,26)                1.0831         D2E/DX2 =    0.358              !
 ! R27   R(24,27)                1.384          D2E/DX2 =    0.3903             !
 ! R28   R(24,28)                1.0826         D2E/DX2 =    0.3596             !
 ! R29   R(25,29)                1.3895         D2E/DX2 =    0.3958             !
 ! R30   R(25,30)                1.0835         D2E/DX2 =    0.3571             !
 ! R31   R(27,29)                1.3948         D2E/DX2 =    0.3839             !
 ! R32   R(27,31)                1.0827         D2E/DX2 =    0.3605             !
 ! R33   R(29,45)                1.4995         D2E/DX2 =    0.3036             !
 ! R34   R(32,33)                1.391          D2E/DX2 =    0.3864             !
 ! R35   R(32,34)                1.3922         D2E/DX2 =    0.3857             !
 ! R36   R(33,35)                1.3852         D2E/DX2 =    0.3861             !
 ! R37   R(33,36)                1.0824         D2E/DX2 =    0.36               !
 ! R38   R(34,37)                1.3853         D2E/DX2 =    0.3993             !
 ! R39   R(34,38)                1.0832         D2E/DX2 =    0.3579             !
 ! R40   R(35,39)                1.3934         D2E/DX2 =    0.3885             !
 ! R41   R(35,40)                1.0845         D2E/DX2 =    0.3552             !
 ! R42   R(37,39)                1.3912         D2E/DX2 =    0.3936             !
 ! R43   R(37,41)                1.0841         D2E/DX2 =    0.3556             !
 ! R44   R(39,42)                1.4966         D2E/DX2 =    0.3065             !
 ! R45   R(42,43)                1.0902         D2E/DX2 =    0.3403             !
 ! R46   R(42,44)                1.1065         D2E/DX2 =    0.2714             !
 ! R47   R(42,72)                1.5253         D2E/DX2 =    0.241              !
 ! R48   R(44,76)                1.8136         D2E/DX2 =    0.0279             !
 ! R49   R(45,46)                1.0885         D2E/DX2 =    0.3453             !
 ! R50   R(45,47)                1.0986         D2E/DX2 =    0.2726             !
 ! R51   R(45,73)                1.5217         D2E/DX2 =    0.2409             !
 ! R52   R(47,76)                1.8987         D2E/DX2 =    0.0323             !
 ! R53   R(48,49)                1.0883         D2E/DX2 =    0.3469             !
 ! R54   R(48,50)                1.0874         D2E/DX2 =    0.3496             !
 ! R55   R(48,51)                1.0936         D2E/DX2 =    0.3291             !
 ! R56   R(48,72)                1.4948         D2E/DX2 =    0.2996             !
 ! R57   R(52,53)                1.0874         D2E/DX2 =    0.3501             !
 ! R58   R(52,54)                1.0875         D2E/DX2 =    0.3492             !
 ! R59   R(52,55)                1.0876         D2E/DX2 =    0.3487             !
 ! R60   R(52,72)                1.4807         D2E/DX2 =    0.314              !
 ! R61   R(56,57)                1.0947         D2E/DX2 =    0.3036             !
 ! R62   R(56,58)                1.0858         D2E/DX2 =    0.3529             !
 ! R63   R(56,59)                1.0882         D2E/DX2 =    0.3467             !
 ! R64   R(56,72)                1.4953         D2E/DX2 =    0.2698             !
 ! R65   R(57,77)                1.9049         D2E/DX2 =    0.022              !
 ! R66   R(60,61)                1.0878         D2E/DX2 =    0.3479             !
 ! R67   R(60,62)                1.088          D2E/DX2 =    0.3479             !
 ! R68   R(60,63)                1.1032         D2E/DX2 =    0.2825             !
 ! R69   R(60,73)                1.4989         D2E/DX2 =    0.2685             !
 ! R70   R(63,75)                1.8883         D2E/DX2 =    0.0253             !
 ! R71   R(64,65)                1.0936         D2E/DX2 =    0.3285             !
 ! R72   R(64,66)                1.0864         D2E/DX2 =    0.3524             !
 ! R73   R(64,67)                1.0882         D2E/DX2 =    0.347              !
 ! R74   R(64,73)                1.4917         D2E/DX2 =    0.3004             !
 ! R75   R(68,69)                1.0862         D2E/DX2 =    0.3526             !
 ! R76   R(68,70)                1.0872         D2E/DX2 =    0.3499             !
 ! R77   R(68,71)                1.0873         D2E/DX2 =    0.3495             !
 ! R78   R(68,73)                1.4816         D2E/DX2 =    0.3114             !
 ! R79   R(74,75)                1.2651         D2E/DX2 =    0.5461             !
 ! R80   R(74,76)                1.3256         D2E/DX2 =    0.3418             !
 ! R81   R(74,77)                1.2784         D2E/DX2 =    0.5015             !
 ! R82   R(76,80)                1.6176         D2E/DX2 =    0.036              !
 ! R83   R(78,79)                0.959          D2E/DX2 =    0.5522             !
 ! R84   R(78,80)                1.0024         D2E/DX2 =    0.4042             !
 ! A1    A(2,1,3)              111.0591         D2E/DX2 =    0.1013             !
 ! A2    A(2,1,4)              111.2725         D2E/DX2 =    0.105              !
 ! A3    A(2,1,5)              110.8618         D2E/DX2 =    0.104              !
 ! A4    A(3,1,4)              108.0632         D2E/DX2 =    0.0518             !
 ! A5    A(3,1,5)              107.8758         D2E/DX2 =    0.0511             !
 ! A6    A(4,1,5)              107.5559         D2E/DX2 =    0.0517             !
 ! A7    A(1,2,6)              113.6677         D2E/DX2 =    0.1503             !
 ! A8    A(1,2,7)              109.8176         D2E/DX2 =    0.0499             !
 ! A9    A(1,2,8)              109.5116         D2E/DX2 =    0.0506             !
 ! A10   A(6,2,7)              109.2814         D2E/DX2 =    0.0523             !
 ! A11   A(6,2,8)              108.1312         D2E/DX2 =    0.0516             !
 ! A12   A(7,2,8)              106.1458         D2E/DX2 =    0.0185             !
 ! A13   A(2,6,9)              110.727          D2E/DX2 =    0.074              !
 ! A14   A(2,6,10)             107.0906         D2E/DX2 =    0.024              !
 ! A15   A(2,6,32)             111.4839         D2E/DX2 =    0.0648             !
 ! A16   A(9,6,10)             108.0941         D2E/DX2 =    0.0255             !
 ! A17   A(9,6,32)             111.8284         D2E/DX2 =    0.0436             !
 ! A18   A(10,6,32)            107.3829         D2E/DX2 =    0.0218             !
 ! A19   A(6,9,11)             109.4951         D2E/DX2 =    0.0465             !
 ! A20   A(6,9,12)             108.896          D2E/DX2 =    0.044              !
 ! A21   A(6,9,13)             115.7892         D2E/DX2 =    0.0858             !
 ! A22   A(11,9,12)            105.9007         D2E/DX2 =    0.0156             !
 ! A23   A(11,9,13)            109.3469         D2E/DX2 =    0.0464             !
 ! A24   A(12,9,13)            106.9346         D2E/DX2 =    0.0459             !
 ! A25   A(9,13,14)            110.3437         D2E/DX2 =    0.077              !
 ! A26   A(9,13,15)            106.8347         D2E/DX2 =    0.0237             !
 ! A27   A(9,13,22)            113.2778         D2E/DX2 =    0.0426             !
 ! A28   A(14,13,15)           107.3508         D2E/DX2 =    0.0231             !
 ! A29   A(14,13,22)           112.0033         D2E/DX2 =    0.0609             !
 ! A30   A(15,13,22)           106.6492         D2E/DX2 =    0.0224             !
 ! A31   A(13,14,16)           109.0323         D2E/DX2 =    0.0518             !
 ! A32   A(13,14,17)           108.3759         D2E/DX2 =    0.0513             !
 ! A33   A(13,14,18)           113.6071         D2E/DX2 =    0.1479             !
 ! A34   A(16,14,17)           106.2138         D2E/DX2 =    0.0184             !
 ! A35   A(16,14,18)           109.7187         D2E/DX2 =    0.0496             !
 ! A36   A(17,14,18)           109.6202         D2E/DX2 =    0.0504             !
 ! A37   A(14,18,19)           111.1007         D2E/DX2 =    0.1017             !
 ! A38   A(14,18,20)           110.9342         D2E/DX2 =    0.1041             !
 ! A39   A(14,18,21)           111.1688         D2E/DX2 =    0.1047             !
 ! A40   A(19,18,20)           107.8276         D2E/DX2 =    0.0513             !
 ! A41   A(19,18,21)           107.9642         D2E/DX2 =    0.0517             !
 ! A42   A(20,18,21)           107.6929         D2E/DX2 =    0.0517             !
 ! A43   A(13,22,23)           120.1268         D2E/DX2 =    0.1055             !
 ! A44   A(13,22,24)           121.7619         D2E/DX2 =    0.0974             !
 ! A45   A(23,22,24)           118.0677         D2E/DX2 =    0.0858             !
 ! A46   A(22,23,25)           121.051          D2E/DX2 =    0.0816             !
 ! A47   A(22,23,26)           119.3886         D2E/DX2 =    0.0839             !
 ! A48   A(25,23,26)           119.5404         D2E/DX2 =    0.0838             !
 ! A49   A(22,24,27)           121.0374         D2E/DX2 =    0.0826             !
 ! A50   A(22,24,28)           119.7643         D2E/DX2 =    0.0836             !
 ! A51   A(27,24,28)           119.0862         D2E/DX2 =    0.0845             !
 ! A52   A(23,25,29)           120.796          D2E/DX2 =    0.0811             !
 ! A53   A(23,25,30)           119.4786         D2E/DX2 =    0.0831             !
 ! A54   A(29,25,30)           119.6931         D2E/DX2 =    0.0829             !
 ! A55   A(24,27,29)           120.6928         D2E/DX2 =    0.0823             !
 ! A56   A(24,27,31)           120.2386         D2E/DX2 =    0.0838             !
 ! A57   A(29,27,31)           118.9562         D2E/DX2 =    0.0857             !
 ! A58   A(25,29,27)           118.3299         D2E/DX2 =    0.0858             !
 ! A59   A(25,29,45)           121.2142         D2E/DX2 =    0.0994             !
 ! A60   A(27,29,45)           120.2426         D2E/DX2 =    0.0935             !
 ! A61   A(6,32,33)            121.6208         D2E/DX2 =    0.1018             !
 ! A62   A(6,32,34)            120.2892         D2E/DX2 =    0.1125             !
 ! A63   A(33,32,34)           118.0569         D2E/DX2 =    0.0861             !
 ! A64   A(32,33,35)           121.3057         D2E/DX2 =    0.0838             !
 ! A65   A(32,33,36)           119.2381         D2E/DX2 =    0.0841             !
 ! A66   A(35,33,36)           119.3181         D2E/DX2 =    0.0842             !
 ! A67   A(32,34,37)           120.8882         D2E/DX2 =    0.0813             !
 ! A68   A(32,34,38)           119.9506         D2E/DX2 =    0.0837             !
 ! A69   A(37,34,38)           119.1437         D2E/DX2 =    0.0848             !
 ! A70   A(33,35,39)           120.3277         D2E/DX2 =    0.0816             !
 ! A71   A(33,35,40)           121.0655         D2E/DX2 =    0.0839             !
 ! A72   A(39,35,40)           118.555          D2E/DX2 =    0.0883             !
 ! A73   A(34,37,39)           120.7875         D2E/DX2 =    0.0809             !
 ! A74   A(34,37,41)           119.4991         D2E/DX2 =    0.083              !
 ! A75   A(39,37,41)           119.6696         D2E/DX2 =    0.0828             !
 ! A76   A(35,39,37)           118.5612         D2E/DX2 =    0.0856             !
 ! A77   A(35,39,42)           119.501          D2E/DX2 =    0.0906             !
 ! A78   A(37,39,42)           121.7095         D2E/DX2 =    0.0959             !
 ! A79   A(39,42,43)           110.9048         D2E/DX2 =    0.0177             !
 ! A80   A(39,42,44)           109.1821         D2E/DX2 =    0.0298             !
 ! A81   A(39,42,72)           115.3309         D2E/DX2 =    0.0453             !
 ! A82   A(43,42,44)           108.9279         D2E/DX2 =    0.0158             !
 ! A83   A(43,42,72)           104.7628         D2E/DX2 =    0.0247             !
 ! A84   A(44,42,72)           107.4877         D2E/DX2 =    0.0347             !
 ! A85   A(29,45,46)           111.0619         D2E/DX2 =    0.0192             !
 ! A86   A(29,45,47)           110.2            D2E/DX2 =    0.0339             !
 ! A87   A(29,45,73)           115.3463         D2E/DX2 =    0.0542             !
 ! A88   A(46,45,47)           108.6785         D2E/DX2 =    0.0166             !
 ! A89   A(46,45,73)           105.3446         D2E/DX2 =    0.0259             !
 ! A90   A(47,45,73)           105.8558         D2E/DX2 =    0.0412             !
 ! A91   A(49,48,50)           110.3411         D2E/DX2 =    0.0537             !
 ! A92   A(49,48,51)           111.5233         D2E/DX2 =    0.0527             !
 ! A93   A(49,48,72)           108.5214         D2E/DX2 =    0.1357             !
 ! A94   A(50,48,51)           111.3011         D2E/DX2 =    0.0526             !
 ! A95   A(50,48,72)           108.5781         D2E/DX2 =    0.1363             !
 ! A96   A(51,48,72)           106.4179         D2E/DX2 =    0.1468             !
 ! A97   A(53,52,54)           109.9404         D2E/DX2 =    0.053              !
 ! A98   A(53,52,55)           109.8892         D2E/DX2 =    0.0528             !
 ! A99   A(53,52,72)           108.8472         D2E/DX2 =    0.1278             !
 ! A100  A(54,52,55)           109.845          D2E/DX2 =    0.0533             !
 ! A101  A(54,52,72)           109.13           D2E/DX2 =    0.1287             !
 ! A102  A(55,52,72)           109.1655         D2E/DX2 =    0.1281             !
 ! A103  A(57,56,58)           112.5476         D2E/DX2 =    0.0316             !
 ! A104  A(57,56,59)           111.1549         D2E/DX2 =    0.0301             !
 ! A105  A(57,56,72)           106.5507         D2E/DX2 =    0.0526             !
 ! A106  A(58,56,59)           110.1085         D2E/DX2 =    0.0263             !
 ! A107  A(58,56,72)           108.7954         D2E/DX2 =    0.069              !
 ! A108  A(59,56,72)           107.4672         D2E/DX2 =    0.0703             !
 ! A109  A(56,57,77)           149.9753         D2E/DX2 =    0.0402             !
 ! A110  A(61,60,62)           110.1507         D2E/DX2 =    0.0259             !
 ! A111  A(61,60,63)           113.0028         D2E/DX2 =    0.0321             !
 ! A112  A(61,60,73)           108.1294         D2E/DX2 =    0.0684             !
 ! A113  A(62,60,63)           108.7872         D2E/DX2 =    0.0312             !
 ! A114  A(62,60,73)           108.0029         D2E/DX2 =    0.0724             !
 ! A115  A(63,60,73)           108.6378         D2E/DX2 =    0.0409             !
 ! A116  A(60,63,75)           158.3593         D2E/DX2 =    0.0471             !
 ! A117  A(65,64,66)           111.8314         D2E/DX2 =    0.0567             !
 ! A118  A(65,64,67)           109.6377         D2E/DX2 =    0.0544             !
 ! A119  A(65,64,73)           108.906          D2E/DX2 =    0.1499             !
 ! A120  A(66,64,67)           109.6845         D2E/DX2 =    0.0524             !
 ! A121  A(66,64,73)           108.7741         D2E/DX2 =    0.1304             !
 ! A122  A(67,64,73)           107.9175         D2E/DX2 =    0.1345             !
 ! A123  A(69,68,70)           109.7608         D2E/DX2 =    0.0535             !
 ! A124  A(69,68,71)           110.1754         D2E/DX2 =    0.0529             !
 ! A125  A(69,68,73)           109.5267         D2E/DX2 =    0.1278             !
 ! A126  A(70,68,71)           109.7638         D2E/DX2 =    0.0524             !
 ! A127  A(70,68,73)           108.9982         D2E/DX2 =    0.1281             !
 ! A128  A(71,68,73)           108.5903         D2E/DX2 =    0.1282             !
 ! A129  A(42,72,48)           106.5374         D2E/DX2 =    0.0339             !
 ! A130  A(42,72,52)           110.1588         D2E/DX2 =    0.0313             !
 ! A131  A(42,72,56)           112.1221         D2E/DX2 =    0.0314             !
 ! A132  A(48,72,52)           110.5996         D2E/DX2 =    0.0338             !
 ! A133  A(48,72,56)           107.9009         D2E/DX2 =    0.0307             !
 ! A134  A(52,72,56)           109.4689         D2E/DX2 =    0.0348             !
 ! A135  A(45,73,60)           106.9012         D2E/DX2 =    0.0275             !
 ! A136  A(45,73,64)           110.4303         D2E/DX2 =    0.0352             !
 ! A137  A(45,73,68)           111.4388         D2E/DX2 =    0.0332             !
 ! A138  A(60,73,64)           108.6895         D2E/DX2 =    0.0323             !
 ! A139  A(60,73,68)           109.8157         D2E/DX2 =    0.0335             !
 ! A140  A(64,73,68)           109.4974         D2E/DX2 =    0.0358             !
 ! A141  A(75,74,76)           118.8665         D2E/DX2 =    0.074              !
 ! A142  A(75,74,77)           123.4202         D2E/DX2 =    0.1029             !
 ! A143  A(76,74,77)           117.7016         D2E/DX2 =    0.0772             !
 ! A144  A(63,75,74)           122.3919         D2E/DX2 =    0.052              !
 ! A145  A(44,76,47)           124.4901         D2E/DX2 =    0.0076             !
 ! A146  A(44,76,74)           102.5923         D2E/DX2 =    0.0191             !
 ! A147  A(44,76,80)           132.3741         D2E/DX2 =    0.0137             !
 ! A148  A(47,76,74)            89.0302         D2E/DX2 =    0.0155             !
 ! A149  A(47,76,80)            92.605          D2E/DX2 =    0.0183             !
 ! A150  A(74,76,80)           107.185          D2E/DX2 =    0.0114             !
 ! A151  A(57,77,74)           147.6492         D2E/DX2 =    0.0628             !
 ! A152  A(79,78,80)           100.241          D2E/DX2 =    0.1381             !
 ! A153  L(42,44,76,9,-1)      169.8608         D2E/DX2 =    0.0264             !
 ! A154  L(45,47,76,1,-1)      174.4583         D2E/DX2 =    0.0301             !
 ! A155  L(76,80,78,18,-1)     180.3053         D2E/DX2 =    0.0616             !
 ! A156  L(42,44,76,9,-2)      186.1587         D2E/DX2 =    0.0304             !
 ! A157  L(45,47,76,1,-2)      181.9905         D2E/DX2 =    0.0402             !
 ! A158  L(76,80,78,18,-2)     172.179          D2E/DX2 =    0.0473             !
 ! D1    D(3,1,2,6)            177.17           D2E/DX2 =    0.0143             !
 ! D2    D(3,1,2,7)            -60.0662         D2E/DX2 =    0.0145             !
 ! D3    D(3,1,2,8)             56.1202         D2E/DX2 =    0.0146             !
 ! D4    D(4,1,2,6)            -62.4016         D2E/DX2 =    0.0142             !
 ! D5    D(4,1,2,7)             60.3623         D2E/DX2 =    0.0152             !
 ! D6    D(4,1,2,8)            176.5487         D2E/DX2 =    0.0145             !
 ! D7    D(5,1,2,6)             57.2533         D2E/DX2 =    0.0138             !
 ! D8    D(5,1,2,7)           -179.9829         D2E/DX2 =    0.0145             !
 ! D9    D(5,1,2,8)            -63.7965         D2E/DX2 =    0.0151             !
 ! D10   D(1,2,6,9)           -177.7285         D2E/DX2 =    0.0145             !
 ! D11   D(1,2,6,10)           -60.0986         D2E/DX2 =    0.0126             !
 ! D12   D(1,2,6,32)            57.0892         D2E/DX2 =    0.0155             !
 ! D13   D(7,2,6,9)             59.2135         D2E/DX2 =    0.0143             !
 ! D14   D(7,2,6,10)           176.8434         D2E/DX2 =    0.0132             !
 ! D15   D(7,2,6,32)           -65.9689         D2E/DX2 =    0.0146             !
 ! D16   D(8,2,6,9)            -55.9089         D2E/DX2 =    0.015              !
 ! D17   D(8,2,6,10)            61.721          D2E/DX2 =    0.0135             !
 ! D18   D(8,2,6,32)           178.9087         D2E/DX2 =    0.0156             !
 ! D19   D(2,6,9,11)           -90.6211         D2E/DX2 =    0.0166             !
 ! D20   D(2,6,9,12)            24.743          D2E/DX2 =    0.0172             !
 ! D21   D(2,6,9,13)           145.2285         D2E/DX2 =    0.0193             !
 ! D22   D(10,6,9,11)          152.3649         D2E/DX2 =    0.0135             !
 ! D23   D(10,6,9,12)          -92.271          D2E/DX2 =    0.014              !
 ! D24   D(10,6,9,13)           28.2146         D2E/DX2 =    0.0135             !
 ! D25   D(32,6,9,11)           34.3665         D2E/DX2 =    0.0173             !
 ! D26   D(32,6,9,12)          149.7306         D2E/DX2 =    0.0174             !
 ! D27   D(32,6,9,13)          -89.7839         D2E/DX2 =    0.017              !
 ! D28   D(2,6,32,33)         -119.0201         D2E/DX2 =    0.016              !
 ! D29   D(2,6,32,34)           63.1131         D2E/DX2 =    0.0159             !
 ! D30   D(9,6,32,33)          116.413          D2E/DX2 =    0.0157             !
 ! D31   D(9,6,32,34)          -61.4538         D2E/DX2 =    0.0162             !
 ! D32   D(10,6,32,33)          -2.0096         D2E/DX2 =    0.0104             !
 ! D33   D(10,6,32,34)        -179.8764         D2E/DX2 =    0.0111             !
 ! D34   D(6,9,13,14)          176.7851         D2E/DX2 =    0.0193             !
 ! D35   D(6,9,13,15)          -66.8241         D2E/DX2 =    0.014              !
 ! D36   D(6,9,13,22)           50.3077         D2E/DX2 =    0.0155             !
 ! D37   D(11,9,13,14)          52.5578         D2E/DX2 =    0.0165             !
 ! D38   D(11,9,13,15)         168.9486         D2E/DX2 =    0.014              !
 ! D39   D(11,9,13,22)         -73.9196         D2E/DX2 =    0.0178             !
 ! D40   D(12,9,13,14)         -61.6745         D2E/DX2 =    0.0172             !
 ! D41   D(12,9,13,15)          54.7163         D2E/DX2 =    0.014              !
 ! D42   D(12,9,13,22)         171.8481         D2E/DX2 =    0.0171             !
 ! D43   D(9,13,14,16)         -64.6148         D2E/DX2 =    0.0137             !
 ! D44   D(9,13,14,17)          50.5885         D2E/DX2 =    0.0138             !
 ! D45   D(9,13,14,18)         172.6831         D2E/DX2 =    0.0136             !
 ! D46   D(15,13,14,16)        179.3165         D2E/DX2 =    0.0135             !
 ! D47   D(15,13,14,17)        -65.4803         D2E/DX2 =    0.0136             !
 ! D48   D(15,13,14,18)         56.6144         D2E/DX2 =    0.0127             !
 ! D49   D(22,13,14,16)         62.5724         D2E/DX2 =    0.0139             !
 ! D50   D(22,13,14,17)        177.7757         D2E/DX2 =    0.0146             !
 ! D51   D(22,13,14,18)        -60.1297         D2E/DX2 =    0.0144             !
 ! D52   D(9,13,22,23)        -115.4099         D2E/DX2 =    0.0145             !
 ! D53   D(9,13,22,24)          62.1425         D2E/DX2 =    0.0155             !
 ! D54   D(14,13,22,23)        118.9964         D2E/DX2 =    0.0151             !
 ! D55   D(14,13,22,24)        -63.4512         D2E/DX2 =    0.0156             !
 ! D56   D(15,13,22,23)          1.8305         D2E/DX2 =    0.0101             !
 ! D57   D(15,13,22,24)        179.3829         D2E/DX2 =    0.0112             !
 ! D58   D(13,14,18,19)       -178.3136         D2E/DX2 =    0.0142             !
 ! D59   D(13,14,18,20)        -58.3819         D2E/DX2 =    0.0138             !
 ! D60   D(13,14,18,21)         61.4252         D2E/DX2 =    0.0141             !
 ! D61   D(16,14,18,19)         59.3631         D2E/DX2 =    0.0146             !
 ! D62   D(16,14,18,20)        179.2948         D2E/DX2 =    0.0145             !
 ! D63   D(16,14,18,21)        -60.8981         D2E/DX2 =    0.0152             !
 ! D64   D(17,14,18,19)        -56.9112         D2E/DX2 =    0.0146             !
 ! D65   D(17,14,18,20)         63.0205         D2E/DX2 =    0.0151             !
 ! D66   D(17,14,18,21)       -177.1724         D2E/DX2 =    0.0145             !
 ! D67   D(13,22,23,25)        176.396          D2E/DX2 =    0.0111             !
 ! D68   D(13,22,23,26)         -1.9715         D2E/DX2 =    0.0087             !
 ! D69   D(24,22,23,25)         -1.2457         D2E/DX2 =    0.0086             !
 ! D70   D(24,22,23,26)       -179.6132         D2E/DX2 =    0.0071             !
 ! D71   D(13,22,24,27)       -175.6545         D2E/DX2 =    0.0118             !
 ! D72   D(13,22,24,28)          0.4603         D2E/DX2 =    0.0087             !
 ! D73   D(23,22,24,27)          1.9464         D2E/DX2 =    0.0088             !
 ! D74   D(23,22,24,28)        178.0612         D2E/DX2 =    0.0073             !
 ! D75   D(22,23,25,29)          0.1613         D2E/DX2 =    0.0092             !
 ! D76   D(22,23,25,30)       -177.7651         D2E/DX2 =    0.0092             !
 ! D77   D(26,23,25,29)        178.5264         D2E/DX2 =    0.0095             !
 ! D78   D(26,23,25,30)          0.6            D2E/DX2 =    0.0092             !
 ! D79   D(22,24,27,29)         -1.5724         D2E/DX2 =    0.0092             !
 ! D80   D(22,24,27,31)        174.533          D2E/DX2 =    0.01               !
 ! D81   D(28,24,27,29)       -177.7131         D2E/DX2 =    0.0093             !
 ! D82   D(28,24,27,31)         -1.6077         D2E/DX2 =    0.0097             !
 ! D83   D(23,25,29,27)          0.2589         D2E/DX2 =    0.009              !
 ! D84   D(23,25,29,45)       -174.4457         D2E/DX2 =    0.0112             !
 ! D85   D(30,25,29,27)        178.1809         D2E/DX2 =    0.0073             !
 ! D86   D(30,25,29,45)          3.4762         D2E/DX2 =    0.0086             !
 ! D87   D(24,27,29,25)          0.4384         D2E/DX2 =    0.0087             !
 ! D88   D(24,27,29,45)        175.1963         D2E/DX2 =    0.0104             !
 ! D89   D(31,27,29,25)       -175.7162         D2E/DX2 =    0.0078             !
 ! D90   D(31,27,29,45)         -0.9583         D2E/DX2 =    0.0089             !
 ! D91   D(25,29,45,46)         25.6062         D2E/DX2 =    0.0099             !
 ! D92   D(25,29,45,47)        146.0948         D2E/DX2 =    0.0111             !
 ! D93   D(25,29,45,73)        -94.1421         D2E/DX2 =    0.0165             !
 ! D94   D(27,29,45,46)       -148.998          D2E/DX2 =    0.0107             !
 ! D95   D(27,29,45,47)        -28.5094         D2E/DX2 =    0.0113             !
 ! D96   D(27,29,45,73)         91.2537         D2E/DX2 =    0.0158             !
 ! D97   D(6,32,33,35)        -174.7203         D2E/DX2 =    0.0124             !
 ! D98   D(6,32,33,36)           0.9795         D2E/DX2 =    0.0087             !
 ! D99   D(34,32,33,35)          3.1924         D2E/DX2 =    0.0094             !
 ! D100  D(34,32,33,36)        178.8921         D2E/DX2 =    0.0073             !
 ! D101  D(6,32,34,37)         176.3136         D2E/DX2 =    0.0104             !
 ! D102  D(6,32,34,38)          -2.1497         D2E/DX2 =    0.0087             !
 ! D103  D(33,32,34,37)         -1.628          D2E/DX2 =    0.0083             !
 ! D104  D(33,32,34,38)        179.9087         D2E/DX2 =    0.0073             !
 ! D105  D(32,33,35,39)         -2.6182         D2E/DX2 =    0.0098             !
 ! D106  D(32,33,35,40)        174.728          D2E/DX2 =    0.0104             !
 ! D107  D(36,33,35,39)       -178.3146         D2E/DX2 =    0.0092             !
 ! D108  D(36,33,35,40)         -0.9684         D2E/DX2 =    0.01               !
 ! D109  D(32,34,37,39)         -0.5146         D2E/DX2 =    0.0094             !
 ! D110  D(32,34,37,41)       -178.0989         D2E/DX2 =    0.009              !
 ! D111  D(38,34,37,39)        177.961          D2E/DX2 =    0.0096             !
 ! D112  D(38,34,37,41)          0.3766         D2E/DX2 =    0.0092             !
 ! D113  D(33,35,39,37)          0.4026         D2E/DX2 =    0.0085             !
 ! D114  D(33,35,39,42)        175.0081         D2E/DX2 =    0.0096             !
 ! D115  D(40,35,39,37)       -177.0094         D2E/DX2 =    0.0083             !
 ! D116  D(40,35,39,42)         -2.4039         D2E/DX2 =    0.0091             !
 ! D117  D(34,37,39,35)          1.1391         D2E/DX2 =    0.0092             !
 ! D118  D(34,37,39,42)       -173.3416         D2E/DX2 =    0.0105             !
 ! D119  D(41,37,39,35)        178.7193         D2E/DX2 =    0.0073             !
 ! D120  D(41,37,39,42)          4.2386         D2E/DX2 =    0.0083             !
 ! D121  D(35,39,42,43)       -154.9453         D2E/DX2 =    0.0128             !
 ! D122  D(35,39,42,44)        -34.9105         D2E/DX2 =    0.0121             !
 ! D123  D(35,39,42,72)         86.1998         D2E/DX2 =    0.0163             !
 ! D124  D(37,39,42,43)         19.4847         D2E/DX2 =    0.0114             !
 ! D125  D(37,39,42,44)        139.5195         D2E/DX2 =    0.0112             !
 ! D126  D(37,39,42,72)        -99.3702         D2E/DX2 =    0.0152             !
 ! D127  D(39,42,76,47)          2.6135         D2E/DX2 =    0.0119             !
 ! D128  D(39,42,76,74)        101.8396         D2E/DX2 =    0.0165             !
 ! D129  D(39,42,76,80)       -125.7493         D2E/DX2 =    0.014              !
 ! D130  D(43,42,76,47)        120.0201         D2E/DX2 =    0.0115             !
 ! D131  D(43,42,76,74)       -140.7538         D2E/DX2 =    0.0119             !
 ! D132  D(43,42,76,80)         -8.3428         D2E/DX2 =    0.0093             !
 ! D133  D(72,42,76,47)       -124.4451         D2E/DX2 =    0.0143             !
 ! D134  D(72,42,76,74)        -25.219          D2E/DX2 =    0.0093             !
 ! D135  D(72,42,76,80)        107.1921         D2E/DX2 =    0.0108             !
 ! D136  D(39,42,72,48)       -165.4277         D2E/DX2 =    0.0184             !
 ! D137  D(39,42,72,52)         74.5742         D2E/DX2 =    0.0152             !
 ! D138  D(39,42,72,56)        -47.5999         D2E/DX2 =    0.014              !
 ! D139  D(43,42,72,48)         72.3647         D2E/DX2 =    0.0151             !
 ! D140  D(43,42,72,52)        -47.6334         D2E/DX2 =    0.0127             !
 ! D141  D(43,42,72,56)       -169.8075         D2E/DX2 =    0.0128             !
 ! D142  D(44,42,72,48)        -43.4035         D2E/DX2 =    0.0172             !
 ! D143  D(44,42,72,52)       -163.4016         D2E/DX2 =    0.0138             !
 ! D144  D(44,42,72,56)         74.4243         D2E/DX2 =    0.0127             !
 ! D145  D(29,45,76,44)        -33.0987         D2E/DX2 =    0.0108             !
 ! D146  D(29,45,76,74)       -137.2111         D2E/DX2 =    0.0189             !
 ! D147  D(29,45,76,80)        115.6537         D2E/DX2 =    0.0111             !
 ! D148  D(46,45,76,44)         86.6439         D2E/DX2 =    0.0097             !
 ! D149  D(46,45,76,74)        -17.4685         D2E/DX2 =    0.0142             !
 ! D150  D(46,45,76,80)       -124.6038         D2E/DX2 =    0.0097             !
 ! D151  D(73,45,76,44)       -159.6181         D2E/DX2 =    0.0164             !
 ! D152  D(73,45,76,74)         96.2695         D2E/DX2 =    0.0181             !
 ! D153  D(73,45,76,80)        -10.8657         D2E/DX2 =    0.0156             !
 ! D154  D(29,45,73,60)        172.9394         D2E/DX2 =    0.0176             !
 ! D155  D(29,45,73,64)        -68.9894         D2E/DX2 =    0.0179             !
 ! D156  D(29,45,73,68)         52.9427         D2E/DX2 =    0.0165             !
 ! D157  D(46,45,73,60)         50.0965         D2E/DX2 =    0.0139             !
 ! D158  D(46,45,73,64)        168.1677         D2E/DX2 =    0.016              !
 ! D159  D(46,45,73,68)        -69.9002         D2E/DX2 =    0.0127             !
 ! D160  D(47,45,73,60)        -64.9383         D2E/DX2 =    0.0157             !
 ! D161  D(47,45,73,64)         53.1328         D2E/DX2 =    0.0176             !
 ! D162  D(47,45,73,68)        175.065          D2E/DX2 =    0.0151             !
 ! D163  D(49,48,72,42)       -173.9295         D2E/DX2 =    0.0148             !
 ! D164  D(49,48,72,52)        -54.2166         D2E/DX2 =    0.0152             !
 ! D165  D(49,48,72,56)         65.4916         D2E/DX2 =    0.0151             !
 ! D166  D(50,48,72,42)        -53.9724         D2E/DX2 =    0.0145             !
 ! D167  D(50,48,72,52)         65.7404         D2E/DX2 =    0.0151             !
 ! D168  D(50,48,72,56)       -174.5513         D2E/DX2 =    0.0151             !
 ! D169  D(51,48,72,42)         65.9328         D2E/DX2 =    0.0169             !
 ! D170  D(51,48,72,52)       -174.3544         D2E/DX2 =    0.017              !
 ! D171  D(51,48,72,56)        -54.6461         D2E/DX2 =    0.0177             !
 ! D172  D(53,52,72,42)        -58.9233         D2E/DX2 =    0.0152             !
 ! D173  D(53,52,72,48)       -176.4339         D2E/DX2 =    0.0154             !
 ! D174  D(53,52,72,56)         64.8054         D2E/DX2 =    0.0144             !
 ! D175  D(54,52,72,42)         61.0654         D2E/DX2 =    0.0151             !
 ! D176  D(54,52,72,48)        -56.4451         D2E/DX2 =    0.015              !
 ! D177  D(54,52,72,56)       -175.2058         D2E/DX2 =    0.0145             !
 ! D178  D(55,52,72,42)       -178.871          D2E/DX2 =    0.0152             !
 ! D179  D(55,52,72,48)         63.6184         D2E/DX2 =    0.0151             !
 ! D180  D(55,52,72,56)        -55.1422         D2E/DX2 =    0.0143             !
 ! D181  D(58,56,57,77)       -134.8159         D2E/DX2 =    0.031              !
 ! D182  D(59,56,57,77)        101.1409         D2E/DX2 =    0.0292             !
 ! D183  D(72,56,57,77)        -15.6515         D2E/DX2 =    0.0154             !
 ! D184  D(57,56,72,42)        -55.5469         D2E/DX2 =    0.0132             !
 ! D185  D(57,56,72,48)         61.4663         D2E/DX2 =    0.0203             !
 ! D186  D(57,56,72,52)       -178.1131         D2E/DX2 =    0.0178             !
 ! D187  D(58,56,72,42)         66.0337         D2E/DX2 =    0.0146             !
 ! D188  D(58,56,72,48)       -176.9531         D2E/DX2 =    0.0168             !
 ! D189  D(58,56,72,52)        -56.5325         D2E/DX2 =    0.0144             !
 ! D190  D(59,56,72,42)       -174.7693         D2E/DX2 =    0.0148             !
 ! D191  D(59,56,72,48)        -57.7561         D2E/DX2 =    0.0163             !
 ! D192  D(59,56,72,52)         62.6644         D2E/DX2 =    0.015              !
 ! D193  D(56,57,77,74)         60.3037         D2E/DX2 =    0.0137             !
 ! D194  D(61,60,63,75)        156.036          D2E/DX2 =    0.0266             !
 ! D195  D(62,60,63,75)         33.3709         D2E/DX2 =    0.0268             !
 ! D196  D(73,60,63,75)        -83.9684         D2E/DX2 =    0.0167             !
 ! D197  D(61,60,73,45)        168.9892         D2E/DX2 =    0.0141             !
 ! D198  D(61,60,73,64)         49.7853         D2E/DX2 =    0.0158             !
 ! D199  D(61,60,73,68)        -69.9775         D2E/DX2 =    0.0152             !
 ! D200  D(62,60,73,45)        -71.8312         D2E/DX2 =    0.0143             !
 ! D201  D(62,60,73,64)        168.9649         D2E/DX2 =    0.0177             !
 ! D202  D(62,60,73,68)         49.2021         D2E/DX2 =    0.0148             !
 ! D203  D(63,60,73,45)         46.0072         D2E/DX2 =    0.0133             !
 ! D204  D(63,60,73,64)        -73.1966         D2E/DX2 =    0.02               !
 ! D205  D(63,60,73,68)        167.0405         D2E/DX2 =    0.0177             !
 ! D206  D(60,63,75,74)         80.8618         D2E/DX2 =    0.0137             !
 ! D207  D(65,64,73,45)        -64.5285         D2E/DX2 =    0.0161             !
 ! D208  D(65,64,73,60)         52.4409         D2E/DX2 =    0.0169             !
 ! D209  D(65,64,73,68)        172.4018         D2E/DX2 =    0.0172             !
 ! D210  D(66,64,73,45)         57.5846         D2E/DX2 =    0.0142             !
 ! D211  D(66,64,73,60)        174.554          D2E/DX2 =    0.0149             !
 ! D212  D(66,64,73,68)        -65.485          D2E/DX2 =    0.0154             !
 ! D213  D(67,64,73,45)        176.5192         D2E/DX2 =    0.0141             !
 ! D214  D(67,64,73,60)        -66.5114         D2E/DX2 =    0.0145             !
 ! D215  D(67,64,73,68)         53.4496         D2E/DX2 =    0.0151             !
 ! D216  D(69,68,73,45)        -65.6474         D2E/DX2 =    0.0145             !
 ! D217  D(69,68,73,60)        176.0919         D2E/DX2 =    0.0147             !
 ! D218  D(69,68,73,64)         56.8229         D2E/DX2 =    0.0154             !
 ! D219  D(70,68,73,45)         54.4514         D2E/DX2 =    0.0143             !
 ! D220  D(70,68,73,60)        -63.8094         D2E/DX2 =    0.0144             !
 ! D221  D(70,68,73,64)        176.9216         D2E/DX2 =    0.0156             !
 ! D222  D(71,68,73,45)        173.9968         D2E/DX2 =    0.0145             !
 ! D223  D(71,68,73,60)         55.736          D2E/DX2 =    0.0143             !
 ! D224  D(71,68,73,64)        -63.533          D2E/DX2 =    0.0153             !
 ! D225  D(76,74,75,63)         37.2115         D2E/DX2 =    0.0202             !
 ! D226  D(77,74,75,63)       -141.5141         D2E/DX2 =    0.0268             !
 ! D227  D(75,74,76,44)        172.1287         D2E/DX2 =    0.0108             !
 ! D228  D(75,74,76,47)        -62.665          D2E/DX2 =    0.0097             !
 ! D229  D(75,74,76,80)         29.7619         D2E/DX2 =    0.0179             !
 ! D230  D(77,74,76,44)         -9.0727         D2E/DX2 =    0.0094             !
 ! D231  D(77,74,76,47)        116.1336         D2E/DX2 =    0.0111             !
 ! D232  D(77,74,76,80)       -151.4395         D2E/DX2 =    0.0146             !
 ! D233  D(75,74,77,57)        167.984          D2E/DX2 =    0.0101             !
 ! D234  D(76,74,77,57)        -10.7555         D2E/DX2 =    0.0086             !
 ! D235  D(44,76,78,79)       -123.3287         D2E/DX2 =    0.0082             !
 ! D236  D(47,76,78,79)         91.9922         D2E/DX2 =    0.0064             !
 ! D237  D(74,76,78,79)          2.7885         D2E/DX2 =    0.0089             !
 --------------------------------------------------------------------------------
 Trust Radius=3.00D-01 FncErr=1.00D-07 GrdErr=1.00D-06 EigMax=2.50D+02 EigMin=1.00D-04
 Number of steps in this run=    480 maximum allowed number of steps=    480.
 GradGradGradGradGradGradGradGradGradGradGradGradGradGradGradGradGradGrad

 Leave Link  103 at Tue Mar 19 09:59:57 2024, MaxMem=  1744830464 cpu:               0.5 elap:               0.1
 (Enter /packages/apps/gaussian/g16/g16/l202.exe)
 Stoichiometry    C28H46N2O4
 Framework group  C1[X(C28H46N2O4)]
 Deg. of freedom   234
 Full point group                 C1      NOp   1
 Largest Abelian subgroup         C1      NOp   1
 Largest concise Abelian subgroup C1      NOp   1
                         Standard orientation:                         
 ---------------------------------------------------------------------
 Center     Atomic      Atomic             Coordinates (Angstroms)
 Number     Number       Type             X           Y           Z
 ---------------------------------------------------------------------
      1          6           0       -4.141268    3.371885   -1.955164
      2          6           0       -4.665157    2.458726   -0.853805
      3          1           0       -4.830377    4.195579   -2.141862
      4          1           0       -3.172132    3.795338   -1.690277
      5          1           0       -4.015835    2.821466   -2.889752
      6          6           0       -3.771602    1.236320   -0.588626
      7          1           0       -4.784625    3.026746    0.073341
      8          1           0       -5.662158    2.099669   -1.120831
      9          6           0       -4.393052    0.330074    0.497027
     10          1           0       -3.722779    0.665204   -1.521112
     11          1           0       -4.027044    0.635494    1.480401
     12          1           0       -5.473882    0.491237    0.516488
     13          6           0       -4.168469   -1.181335    0.316391
     14          6           0       -4.765915   -1.954823    1.500004
     15          1           0       -4.721244   -1.479092   -0.580701
     16          1           0       -4.224276   -1.686444    2.411240
     17          1           0       -5.795477   -1.618735    1.646779
     18          6           0       -4.742845   -3.467250    1.314716
     19          1           0       -5.202354   -3.973596    2.163465
     20          1           0       -5.289655   -3.758526    0.415644
     21          1           0       -3.721440   -3.836335    1.215588
     22          6           0       -2.719350   -1.546073    0.073944
     23          6           0       -2.334668   -2.106915   -1.137742
     24          6           0       -1.729933   -1.289633    1.021317
     25          6           0       -1.002528   -2.379902   -1.408589
     26          1           0       -3.085291   -2.309305   -1.891883
     27          6           0       -0.397657   -1.547310    0.749353
     28          1           0       -1.994533   -0.824154    1.962297
     29          6           0       -0.014656   -2.102179   -0.471679
     30          1           0       -0.726884   -2.783569   -2.375598
     31          1           0        0.368739   -1.261980    1.458845
     32          6           0       -2.354763    1.649687   -0.235422
     33          6           0       -1.267723    1.266984   -1.014459
     34          6           0       -2.106443    2.393507    0.914903
     35          6           0        0.031120    1.555438   -0.629000
     36          1           0       -1.437270    0.672846   -1.903198
     37          6           0       -0.811527    2.712869    1.289582
     38          1           0       -2.930399    2.709028    1.543220
     39          6           0        0.274513    2.288733    0.530587
     40          1           0        0.878412    1.182788   -1.194108
     41          1           0       -0.642182    3.266574    2.206061
     42          6           0        1.683800    2.494064    0.990528
     43          1           0        1.720150    2.671947    2.065498
     44          1           0        2.278098    1.590638    0.755910
     45          6           0        1.438080   -2.277791   -0.798895
     46          1           0        1.611534   -2.187726   -1.869687
     47          1           0        2.038348   -1.517869   -0.280088
     48          6           0        3.857823    3.509023    0.670681
     49          1           0        4.390886    4.398183    0.339551
     50          1           0        3.978593    3.373234    1.742759
     51          1           0        4.177977    2.620614    0.119154
     52          6           0        1.902984    4.949045    0.969405
     53          1           0        0.832618    5.020345    0.791653
     54          1           0        2.101725    4.941837    2.038561
     55          1           0        2.412039    5.790430    0.504913
     56          6           0        2.240470    3.740209   -1.111242
     57          1           0        2.591670    2.777782   -1.496839
     58          1           0        1.195720    3.925049   -1.342159
     59          1           0        2.855553    4.558907   -1.479533
     60          6           0        3.425312   -3.660022   -0.968563
     61          1           0        3.940336   -4.516639   -0.539179
     62          1           0        3.347391   -3.771957   -2.047990
     63          1           0        3.923626   -2.701294   -0.745833
     64          6           0        2.119450   -3.738601    1.079203
     65          1           0        2.816272   -2.984932    1.456440
     66          1           0        1.124064   -3.613068    1.495919
     67          1           0        2.493061   -4.733000    1.315554
     68          6           0        1.242437   -4.747288   -0.947887
     69          1           0        0.259821   -4.754846   -0.484919
     70          1           0        1.141145   -4.623637   -2.023318
     71          1           0        1.765748   -5.675651   -0.732214
     72          7           0        2.403814    3.689141    0.374255
     73          7           0        2.036767   -3.620325   -0.405506
     74          6           0        3.676867    0.062652   -0.586903
     75          8           0        4.421368   -0.891776   -0.954599
     76          8           0        2.967373   -0.070842    0.524858
     77          8           0        3.550436    1.151066   -1.245506
     78          8           0        4.338405   -1.730527    2.009396
     79          1           0        5.082611   -1.831108    1.413021
     80          1           0        3.797179   -1.053106    1.506343
 ---------------------------------------------------------------------
 Rotational constants (GHZ):           0.1323311           0.1041322           0.0664827
 Leave Link  202 at Tue Mar 19 09:59:58 2024, MaxMem=  1744830464 cpu:               1.0 elap:               0.2
 (Enter /packages/apps/gaussian/g16/g16/l301.exe)
 Standard basis: 6-311+G(2d,2p) (5D, 7F)
 Ernie: Thresh=  0.10000D-02 Tol=  0.10000D-05 Strict=F.
 There are  1400 symmetry adapted cartesian basis functions of A   symmetry.
 There are  1332 symmetry adapted basis functions of A   symmetry.
  1332 basis functions,  1934 primitive gaussians,  1400 cartesian basis functions
   130 alpha electrons      130 beta electrons
       nuclear repulsion energy      4024.4714037535 Hartrees.
 IExCor= 4639 DFT=T Ex+Corr=wB97XD ExCW=0 ScaHFX=  1.000000
 ScaDFX=  1.000000  1.000000  1.000000  1.000000 ScalE2=  1.000000  1.000000
 IRadAn=      5 IRanWt=     -1 IRanGd=            0 ICorTp=0 IEmpDi=121
 HFx  wShort=  0.000000 wLong=  0.200000 cFull=  0.222036 cShort=  0.000000 cLong=  0.777964
 DFx  wShort=  0.000000 wLong=  0.200000 cFull=  0.000000 cShort=  0.000000 cLong=  1.000000
 NAtoms=   80 NActive=   80 NUniq=   80 SFac= 1.00D+00 NAtFMM=   60 NAOKFM=T Big=T
 Integral buffers will be    131072 words long.
 Raffenetti 2 integral format.
 Two-electron integral symmetry is turned on.
 R6Disp:  Grimme-D2 Dispersion energy=       -0.0915686846 Hartrees.
 Nuclear repulsion after empirical dispersion term =     4024.3798350689 Hartrees.
 Leave Link  301 at Tue Mar 19 09:59:58 2024, MaxMem=  1744830464 cpu:               0.7 elap:               0.1
 (Enter /packages/apps/gaussian/g16/g16/l302.exe)
 NPDir=0 NMtPBC=     1 NCelOv=     1 NCel=       1 NClECP=     1 NCelD=      1
         NCelK=      1 NCelE2=     1 NClLst=     1 CellRange=     0.0.
 One-electron integrals computed using PRISM.
 One-electron integral symmetry used in STVInt
 NBasis=  1332 RedAO= T EigKep=  1.01D-06  NBF=  1332
 NBsUse=  1323 1.00D-06 EigRej=  8.58D-07 NBFU=  1323
 Precomputing XC quadrature grid using
 IXCGrd= 4 IRadAn=           5 IRanWt=          -1 IRanGd=           0 AccXCQ= 0.00D+00.
 Generated NRdTot=       0 NPtTot=           0 NUsed=           0 NTot=          32
 NSgBfM=  1345  1342  1342  1342  1345 MxSgAt=    80 MxSgA2=    80.
 Leave Link  302 at Tue Mar 19 10:00:04 2024, MaxMem=  1744830464 cpu:              91.2 elap:               6.5
 (Enter /packages/apps/gaussian/g16/g16/l303.exe)
 DipDrv:  MaxL=1.
 Leave Link  303 at Tue Mar 19 10:00:05 2024, MaxMem=  1744830464 cpu:               3.5 elap:               0.7
 (Enter /packages/apps/gaussian/g16/g16/l401.exe)
 Initial guess from the checkpoint file:  "1water-v4-ofreq.chk"
 B after Tr=     0.000000   -0.000000    0.000000
         Rot=    1.000000    0.000000    0.000000   -0.000000 Ang=  -0.00 deg.
 Guess basis will be translated and rotated to current coordinates.
 JPrj=2 DoOrth=T DoCkMO=T.
 Leave Link  401 at Tue Mar 19 10:00:17 2024, MaxMem=  1744830464 cpu:             123.9 elap:              11.6
 (Enter /packages/apps/gaussian/g16/g16/l502.exe)
 Integral symmetry usage will be decided dynamically.
 Closed shell SCF:
 Using DIIS extrapolation, IDIIS=  1040.
 NGot=  1744830464 LenX=  1740869612 LenY=  1738908212
 Requested convergence on RMS density matrix=1.00D-08 within 128 cycles.
 Requested convergence on MAX density matrix=1.00D-06.
 Requested convergence on             energy=1.00D-06.
 No special actions if energy rises.
 Fock matrices will be formed incrementally for  20 cycles.

 Cycle   1  Pass 1  IDiag  1:
 FoFJK:  IHMeth= 1 ICntrl=       0 DoSepK=T KAlg= 0 I1Cent=           0 FoldK=F
 IRaf=         1 NMat=       1 IRICut=       1 DoRegI=T DoRafI=F ISym2E= 0 IDoP0=0 IntGTp=1.
 FoFCou: FMM=T IPFlag=           0 FMFlag=      100000 FMFlg1=        2001
         NFxFlg=           0 DoJE=T BraDBF=F KetDBF=F FulRan=T
         wScrn=  0.000000 ICntrl=       500 IOpCl=  0 I1Cent=           0 NGrid=           0
         NMat0=    1 NMatS0=      1 NMatT0=    0 NMatD0=    1 NMtDS0=    0 NMtDT0=    0
 Symmetry not used in FoFCou.
 FMM levels:  10  Number of levels for PrismC:   9
 E= -1505.06084979558    
 DIIS: error= 2.66D-08 at cycle   1 NSaved=   1.
 NSaved= 1 IEnMin= 1 EnMin= -1505.06084979558     IErMin= 1 ErrMin= 2.66D-08
 ErrMax= 2.66D-08  0.00D+00 EMaxC= 1.00D-01 BMatC= 6.45D-12 BMatP= 6.45D-12
 IDIUse=1 WtCom= 1.00D+00 WtEn= 0.00D+00
 Coeff-Com:  0.100D+01
 Coeff:      0.100D+01
 Gap=     0.249 Goal=   None    Shift=    0.000
 RMSDP=2.10D-08 MaxDP=2.70D-06              OVMax= 3.32D-07

 Cycle   2  Pass 1  IDiag  1:
 RMSU=  1.98D-08    CP:  1.00D+00
 E= -1505.06084979559     Delta-E=       -0.000000000007 Rises=F Damp=F
 DIIS: error= 9.64D-09 at cycle   2 NSaved=   2.
 NSaved= 2 IEnMin= 2 EnMin= -1505.06084979559     IErMin= 2 ErrMin= 9.64D-09
 ErrMax= 9.64D-09  0.00D+00 EMaxC= 1.00D-01 BMatC= 3.82D-13 BMatP= 6.45D-12
 IDIUse=1 WtCom= 1.00D+00 WtEn= 0.00D+00
 Coeff-Com:  0.259D-01 0.974D+00
 Coeff:      0.259D-01 0.974D+00
 Gap=     0.249 Goal=   None    Shift=    0.000
 RMSDP=3.07D-09 MaxDP=3.97D-07 DE=-7.28D-12 OVMax= 1.96D-07

 SCF Done:  E(RwB97XD) =  -1505.06084980     A.U. after    2 cycles
            NFock=  2  Conv=0.31D-08     -V/T= 2.0041
 KE= 1.498849756145D+03 PE=-1.155537925371D+04 EE= 4.527088812704D+03
 Leave Link  502 at Tue Mar 19 10:03:24 2024, MaxMem=  1744830464 cpu:            2669.2 elap:             187.2
 (Enter /packages/apps/gaussian/g16/g16/l601.exe)
 Copying SCF densities to generalized density rwf, IOpCl= 0 IROHF=0.

 **********************************************************************

            Population analysis using the SCF density.

 **********************************************************************

 Orbital symmetries:
       Occupied  (A) (A) (A) (A) (A) (A) (A) (A) (A) (A) (A) (A)
                 (A) (A) (A) (A) (A) (A) (A) (A) (A) (A) (A) (A)
                 (A) (A) (A) (A) (A) (A) (A) (A) (A) (A) (A) (A)
                 (A) (A) (A) (A) (A) (A) (A) (A) (A) (A) (A) (A)
                 (A) (A) (A) (A) (A) (A) (A) (A) (A) (A) (A) (A)
                 (A) (A) (A) (A) (A) (A) (A) (A) (A) (A) (A) (A)
                 (A) (A) (A) (A) (A) (A) (A) (A) (A) (A) (A) (A)
                 (A) (A) (A) (A) (A) (A) (A) (A) (A) (A) (A) (A)
                 (A) (A) (A) (A) (A) (A) (A) (A) (A) (A) (A) (A)
                 (A) (A) (A) (A) (A) (A) (A) (A) (A) (A) (A) (A)
                 (A) (A) (A) (A) (A) (A) (A) (A) (A) (A)
       Virtual   (A) (A) (A) (A) (A) (A) (A) (A) (A) (A) (A) (A)
                 (A) (A) (A) (A) (A) (A) (A) (A) (A) (A) (A) (A)
                 (A) (A) (A) (A) (A) (A) (A) (A) (A) (A) (A) (A)
                 (A) (A) (A) (A) (A) (A) (A) (A) (A) (A) (A) (A)
                 (A) (A) (A) (A) (A) (A) (A) (A) (A) (A) (A) (A)
                 (A) (A) (A) (A) (A) (A) (A) (A) (A) (A) (A) (A)
                 (A) (A) (A) (A) (A) (A) (A) (A) (A) (A) (A) (A)
                 (A) (A) (A) (A) (A) (A) (A) (A) (A) (A) (A) (A)
                 (A) (A) (A) (A) (A) (A) (A) (A) (A) (A) (A) (A)
                 (A) (A) (A) (A) (A) (A) (A) (A) (A) (A) (A) (A)
                 (A) (A) (A) (A) (A) (A) (A) (A) (A) (A) (A) (A)
                 (A) (A) (A) (A) (A) (A) (A) (A) (A) (A) (A) (A)
                 (A) (A) (A) (A) (A) (A) (A) (A) (A) (A) (A) (A)
                 (A) (A) (A) (A) (A) (A) (A) (A) (A) (A) (A) (A)
                 (A) (A) (A) (A) (A) (A) (A) (A) (A) (A) (A) (A)
                 (A) (A) (A) (A) (A) (A) (A) (A) (A) (A) (A) (A)
                 (A) (A) (A) (A) (A) (A) (A) (A) (A) (A) (A) (A)
                 (A) (A) (A) (A) (A) (A) (A) (A) (A) (A) (A) (A)
                 (A) (A) (A) (A) (A) (A) (A) (A) (A) (A) (A) (A)
                 (A) (A) (A) (A) (A) (A) (A) (A) (A) (A) (A) (A)
                 (A) (A) (A) (A) (A) (A) (A) (A) (A) (A) (A) (A)
                 (A) (A) (A) (A) (A) (A) (A) (A) (A) (A) (A) (A)
                 (A) (A) (A) (A) (A) (A) (A) (A) (A) (A) (A) (A)
                 (A) (A) (A) (A) (A) (A) (A) (A) (A) (A) (A) (A)
                 (A) (A) (A) (A) (A) (A) (A) (A) (A) (A) (A) (A)
                 (A) (A) (A) (A) (A) (A) (A) (A) (A) (A) (A) (A)
                 (A) (A) (A) (A) (A) (A) (A) (A) (A) (A) (A) (A)
                 (A) (A) (A) (A) (A) (A) (A) (A) (A) (A) (A) (A)
                 (A) (A) (A) (A) (A) (A) (A) (A) (A) (A) (A) (A)
                 (A) (A) (A) (A) (A) (A) (A) (A) (A) (A) (A) (A)
                 (A) (A) (A) (A) (A) (A) (A) (A) (A) (A) (A) (A)
                 (A) (A) (A) (A) (A) (A) (A) (A) (A) (A) (A) (A)
                 (A) (A) (A) (A) (A) (A) (A) (A) (A) (A) (A) (A)
                 (A) (A) (A) (A) (A) (A) (A) (A) (A) (A) (A) (A)
                 (A) (A) (A) (A) (A) (A) (A) (A) (A) (A) (A) (A)
                 (A) (A) (A) (A) (A) (A) (A) (A) (A) (A) (A) (A)
                 (A) (A) (A) (A) (A) (A) (A) (A) (A) (A) (A) (A)
                 (A) (A) (A) (A) (A) (A) (A) (A) (A) (A) (A) (A)
                 (A) (A) (A) (A) (A) (A) (A) (A) (A) (A) (A) (A)
                 (A) (A) (A) (A) (A) (A) (A) (A) (A) (A) (A) (A)
                 (A) (A) (A) (A) (A) (A) (A) (A) (A) (A) (A) (A)
                 (A) (A) (A) (A) (A) (A) (A) (A) (A) (A) (A) (A)
                 (A) (A) (A) (A) (A) (A) (A) (A) (A) (A) (A) (A)
                 (A) (A) (A) (A) (A) (A) (A) (A) (A) (A) (A) (A)
                 (A) (A) (A) (A) (A) (A) (A) (A) (A) (A) (A) (A)
                 (A) (A) (A) (A) (A) (A) (A) (A) (A) (A) (A) (A)
                 (A) (A) (A) (A) (A) (A) (A) (A) (A) (A) (A) (A)
                 (A) (A) (A) (A) (A) (A) (A) (A) (A) (A) (A) (A)
                 (A) (A) (A) (A) (A) (A) (A) (A) (A) (A) (A) (A)
                 (A) (A) (A) (A) (A) (A) (A) (A) (A) (A) (A) (A)
                 (A) (A) (A) (A) (A) (A) (A) (A) (A) (A) (A) (A)
                 (A) (A) (A) (A) (A) (A) (A) (A) (A) (A) (A) (A)
                 (A) (A) (A) (A) (A) (A) (A) (A) (A) (A) (A) (A)
                 (A) (A) (A) (A) (A) (A) (A) (A) (A) (A) (A) (A)
                 (A) (A) (A) (A) (A) (A) (A) (A) (A) (A) (A) (A)
                 (A) (A) (A) (A) (A) (A) (A) (A) (A) (A) (A) (A)
                 (A) (A) (A) (A) (A) (A) (A) (A) (A) (A) (A) (A)
                 (A) (A) (A) (A) (A) (A) (A) (A) (A) (A) (A) (A)
                 (A) (A) (A) (A) (A) (A) (A) (A) (A) (A) (A) (A)
                 (A) (A) (A) (A) (A) (A) (A) (A) (A) (A) (A) (A)
                 (A) (A) (A) (A) (A) (A) (A) (A) (A) (A) (A) (A)
                 (A) (A) (A) (A) (A) (A) (A) (A) (A) (A) (A) (A)
                 (A) (A) (A) (A) (A) (A) (A) (A) (A) (A) (A) (A)
                 (A) (A) (A) (A) (A) (A) (A) (A) (A) (A) (A) (A)
                 (A) (A) (A) (A) (A) (A) (A) (A) (A) (A) (A) (A)
                 (A) (A) (A) (A) (A) (A) (A) (A) (A) (A) (A) (A)
                 (A) (A) (A) (A) (A) (A) (A) (A) (A) (A) (A) (A)
                 (A) (A) (A) (A) (A) (A) (A) (A) (A) (A) (A) (A)
                 (A) (A) (A) (A) (A) (A) (A) (A) (A) (A) (A) (A)
                 (A) (A) (A) (A) (A) (A) (A) (A) (A) (A) (A) (A)
                 (A) (A) (A) (A) (A) (A) (A) (A) (A) (A) (A) (A)
                 (A) (A) (A) (A) (A) (A) (A) (A) (A) (A) (A) (A)
                 (A) (A) (A) (A) (A) (A) (A) (A) (A) (A) (A) (A)
                 (A) (A) (A) (A) (A) (A) (A) (A) (A) (A) (A) (A)
                 (A) (A) (A) (A) (A) (A) (A) (A) (A) (A) (A) (A)
                 (A) (A) (A) (A) (A) (A) (A) (A) (A) (A) (A) (A)
                 (A) (A) (A) (A) (A) (A) (A) (A) (A) (A) (A) (A)
                 (A) (A) (A) (A) (A) (A) (A) (A) (A) (A) (A) (A)
                 (A) (A) (A) (A) (A) (A) (A) (A) (A) (A) (A) (A)
                 (A) (A) (A) (A) (A) (A) (A) (A) (A) (A) (A) (A)
                 (A) (A) (A) (A) (A) (A) (A) (A) (A) (A) (A) (A)
                 (A) (A) (A) (A) (A) (A) (A) (A) (A) (A) (A) (A)
                 (A) (A) (A) (A) (A) (A) (A) (A) (A) (A) (A) (A)
                 (A) (A) (A) (A) (A) (A) (A) (A) (A) (A) (A) (A)
                 (A) (A) (A) (A) (A) (A) (A) (A) (A) (A) (A) (A)
                 (A) (A) (A) (A) (A) (A) (A) (A) (A) (A) (A) (A)
                 (A) (A) (A) (A) (A) (A) (A) (A) (A) (A) (A) (A)
                 (A) (A) (A) (A) (A) (A) (A) (A) (A) (A) (A) (A)
                 (A) (A) (A) (A) (A) (A) (A) (A) (A) (A) (A) (A)
                 (A) (A) (A) (A) (A) (A) (A) (A) (A) (A) (A) (A)
                 (A) (A) (A) (A) (A) (A) (A) (A) (A) (A) (A) (A)
                 (A) (A) (A) (A) (A) (A) (A) (A) (A) (A) (A) (A)
                 (A) (A) (A) (A) (A) (A) (A) (A) (A) (A) (A) (A)
                 (A) (A) (A) (A) (A) (A) (A) (A) (A) (A) (A) (A)
                 (A) (A) (A) (A) (A) (A) (A) (A) (A) (A) (A) (A)
                 (A) (A) (A) (A) (A) (A) (A) (A) (A) (A) (A) (A)
                 (A) (A) (A) (A) (A) (A) (A) (A) (A) (A) (A) (A)
                 (A) (A) (A) (A) (A) (A) (A) (A) (A) (A) (A) (A)
                 (A) (A) (A) (A) (A) (A) (A) (A) (A) (A) (A) (A)
                 (A) (A) (A) (A) (A)
 The electronic state is 1-A.
 Alpha  occ. eigenvalues --  -19.15742 -19.10896 -19.09714 -19.09383 -14.56084
 Alpha  occ. eigenvalues --  -14.55895 -10.34612 -10.34551 -10.31708 -10.31701
 Alpha  occ. eigenvalues --  -10.31594 -10.31023 -10.30976 -10.30943 -10.30633
 Alpha  occ. eigenvalues --  -10.30136 -10.30049 -10.29798 -10.29698 -10.29543
 Alpha  occ. eigenvalues --  -10.29464 -10.29339 -10.29256 -10.29154 -10.29084
 Alpha  occ. eigenvalues --  -10.28970 -10.28651 -10.28647 -10.28540 -10.28391
 Alpha  occ. eigenvalues --  -10.28078 -10.27902 -10.27318 -10.27003  -1.12237
 Alpha  occ. eigenvalues --   -1.12060  -1.06989  -1.02142  -0.98213  -0.97102
 Alpha  occ. eigenvalues --   -0.94717  -0.94148  -0.93674  -0.91211  -0.87818
 Alpha  occ. eigenvalues --   -0.87141  -0.85980  -0.85719  -0.85371  -0.84898
 Alpha  occ. eigenvalues --   -0.84382  -0.83898  -0.83773  -0.81735  -0.80595
 Alpha  occ. eigenvalues --   -0.77427  -0.73334  -0.72472  -0.71699  -0.71589
 Alpha  occ. eigenvalues --   -0.71144  -0.69514  -0.68968  -0.66510  -0.65834
 Alpha  occ. eigenvalues --   -0.62164  -0.61777  -0.61315  -0.61181  -0.60965
 Alpha  occ. eigenvalues --   -0.60718  -0.59470  -0.58223  -0.56925  -0.56138
 Alpha  occ. eigenvalues --   -0.55016  -0.54518  -0.54270  -0.54123  -0.53566
 Alpha  occ. eigenvalues --   -0.53352  -0.52967  -0.52602  -0.52371  -0.52202
 Alpha  occ. eigenvalues --   -0.52049  -0.51448  -0.51214  -0.50997  -0.50334
 Alpha  occ. eigenvalues --   -0.49461  -0.49246  -0.48918  -0.48454  -0.48382
[...]
 860,-0.00000194,-0.00000290,-0.00000102,0.00000694,-0.00000049,0.00000
 318,0.00001582,0.00000890,0.00000259,-0.00000132,0.00000311,-0.0000039
 5,-0.00000638,-0.00000056,0.00000253,0.00001348,-0.00000716,-0.0000008
 3,-0.00002624,-0.00000046,-0.00000879,0.00000636,-0.00001104,0.0000095
 1,0.00000649,0.00000147,0.00000403,-0.00000564,0.00000213,0.00000294,0
 .00001488,0.00000060,-0.00000600,-0.00000883,0.00000204,-0.00000315,0.
 00000590,0.00000406,-0.00000763,-0.00000032,-0.00000071,0.00000437,0.0
 0000299,-0.00000901,0.00000438,-0.00000678,0.00001202,0.00001133,0.000
 02869,-0.00002034,-0.00001777,0.00001294,0.00000514,0.00001330,0.00001
 766,-0.00001556,-0.00004114,0.00001533,-0.00000015,0.00000625,0.000032
 18,0.00000528,0.00001528,0.00000600,-0.00000678,-0.00000810,-0.0000272
 9,0.00002400,0.00004214,-0.00001271,0.00000288,-0.00000965,-0.00000433
 ,0.00000404,0.00002280,-0.00000781,-0.00000254,0.00000104,0.00001525,-
 0.00001681,-0.00000926,0.00001123,-0.00000037,-0.00000007,-0.00002037,
 0.00000538,0.00003234,-0.00000381,0.00000923,-0.00000498,0.00000650,0.
 00000604,0.00001140,0.00000658,0.00000105,-0.00000473,-0.00002866,-0.0
 0003288,-0.00000855,-0.00003135,0.00001622,-0.00002055,-0.00000219,-0.
 00000168,-0.00000636,0.00009954,-0.00009704,-0.00004598,0.00000500,-0.
 00001710,-0.00001068,-0.00014909,0.00036773,0.00007952,-0.00010482,0.0
 0010048,-0.00003868,-0.00000002,-0.00000242,-0.00000320,-0.00021128,-0
 .00002428,-0.00004734,0.00003447,-0.00003962,-0.00001736,0.00000530,-0
 .00003077,0.00000497,0.00002396,-0.00000219,-0.00001369,0.00005510,0.0
 0011487,0.00007889,-0.00002268,0.00001059,0.00001989,-0.00000016,0.000
 00747,-0.00000141,0.00000579,0.00000416,-0.00000438,-0.00000094,-0.000
 01395,0.00000421,0.00001384,-0.00004264,0.00000386,-0.00005486,0.00014
 101,-0.00001121,0.00000556,-0.00000318,-0.00001067,-0.00000378,-0.0000
 2020,-0.00000151,-0.00023543,-0.00035119,0.00032538,0.00003451,-0.0000
 4835,-0.00009165,0.00022374,0.00017503,0.00010725,-0.00023380,-0.00027
 832,-0.00103318,0.00020830,-0.00037777,-0.00034554,-0.00131429,0.00014
 753,0.00069078,0.00014049,0.00014653,0.00009562,-0.00008098,-0.0000802
 5,-0.00001815,0.00001002,-0.00010026,-0.00009572,0.00003186,0.00002889
 ,-0.00000204,-0.00001128,-0.00000261,0.00000228,-0.00000400,-0.0000053
 3,0.00000122,-0.00001188,-0.00002565,-0.00001060,-0.00012249,-0.000099
 44,-0.00005753,-0.00128586,0.00288654,-0.00084004,-0.00013959,-0.00177
 312,0.00227707,0.00150160,-0.00086895,-0.00077797,0.00024380,-0.001220
 89,0.00022322,-0.32802353,0.06177559,0.22810581,0.35432625,0.00000591,
 0.00000176,0.00000442,-0.00000802,-0.00000898,-0.00000028,-0.00000363,
 0.00000150,0.00000023,-0.00000301,-0.00000615,0.00000006,0.00000149,-0
 .00000139,-0.00000084,0.00000984,0.00001201,0.00001312,0.00000467,-0.0
 0000070,-0.00000069,-0.00001089,0.00000143,-0.00000378,-0.00000185,0.0
 0001257,-0.00000533,-0.00000321,-0.00000156,-0.00000704,0.00000258,0.0
 0000094,-0.00000545,-0.00000617,-0.00000910,0.00000139,-0.00000762,0.0
 0000659,-0.00000332,0.00000902,-0.00000308,-0.00000015,0.00000042,-0.0
 0000219,-0.00000138,-0.00000171,0.00000010,-0.00000081,0.00000331,-0.0
 0000018,-0.00000183,-0.00000646,-0.00000042,0.00000306,-0.00000153,-0.
 00000287,0.00000199,-0.00000039,-0.00000045,-0.00000145,0.00000426,0.0
 0000040,-0.00000080,-0.00000023,0.00000154,0.00000423,0.00000235,-0.00
 000957,-0.00000882,-0.00000010,-0.00001304,-0.00000871,-0.00000252,-0.
 00001697,-0.00000564,0.00000244,0.00000544,-0.00000127,0.00003995,0.00
 000758,0.00004490,0.00000789,0.00000463,-0.00000858,0.00000871,-0.0001
 0076,0.00002710,-0.00000499,0.00000833,-0.00001480,0.00002534,0.000013
 85,-0.00000826,0.00000598,0.00000189,0.00000292,-0.00001730,0.00000947
 ,0.00002796,-0.00002308,-0.00001796,-0.00000574,0.00000101,-0.00001163
 ,-0.00002954,-0.00000377,0.00000180,-0.00001315,-0.00000438,-0.0000157
 8,-0.00001350,-0.00000829,0.00000430,0.00000378,0.00002649,0.00001506,
 0.00002270,0.00005363,0.00000766,0.00001632,0.00000566,0.00000282,-0.0
 0000573,0.00001898,0.00013307,-0.00000684,-0.00000018,0.00000593,0.000
 00078,0.00010627,-0.00020299,-0.00005418,-0.00014534,0.00017721,-0.000
 12883,0.00002357,0.00001864,0.00000232,0.00018677,0.00035070,0.0001067
 3,0.00006737,-0.00003002,0.00002472,-0.00001818,0.00002524,-0.00000923
 ,0.00001838,-0.00004251,-0.00002388,0.00004795,-0.00010739,0.00002023,
 -0.00001092,-0.00003974,-0.00002272,-0.00001124,0.00001425,-0.00000002
 ,0.00000893,-0.00000236,-0.00000123,0.00000447,-0.00000095,0.00000150,
 -0.00002311,0.00002610,0.00002899,0.00007407,-0.00011405,0.00001272,-0
 .00001825,0.00001804,-0.00000267,0.00000481,0.00000053,0.00000630,-0.0
 0058958,-0.00042162,0.00017557,-0.00014256,-0.00049818,-0.00015775,0.0
 0030814,0.00012151,0.00013092,-0.00013572,0.00122076,-0.00078092,-0.00
 035299,-0.00078349,-0.00084462,-0.00037739,0.00118055,0.00143562,0.000
 15752,0.00011255,0.00012504,-0.00016380,-0.00026248,-0.00002656,0.0000
 4908,-0.00006808,-0.00015657,0.00003942,0.00004421,-0.00000593,-0.0000
 3509,-0.00001148,-0.00001723,-0.00002260,-0.00004290,0.00000755,-0.000
 06179,0.00002844,0.00000077,-0.00000059,-0.00034853,0.00001603,0.00210
 839,-0.00232774,0.00078389,-0.00199439,-0.00070142,-0.00143369,-0.0014
 7758,-0.00071183,0.00160353,-0.00026328,0.00062422,-0.00002323,0.03851
 055,-0.02899451,-0.00885061,-0.06502637,0.03369646,-0.00000129,-0.0000
 0169,0.00000008,-0.00000098,0.00000856,0.00000096,0.00000496,-0.000004
 38,0.00000142,0.00000002,0.00000641,0.00000006,-0.00000260,0.,-0.00000
 200,-0.00000546,-0.00000459,-0.00001052,-0.00000213,-0.00000270,-0.000
 00266,0.00000770,0.00000005,0.00000283,0.00001093,0.00000412,0.0000061
 2,-0.00000075,0.00000180,-0.00000180,-0.00000503,-0.00000185,0.0000010
 3,0.00001163,-0.00000333,-0.00000071,-0.00001386,-0.00000328,-0.000007
 67,0.00000426,-0.00000703,0.00000817,0.00000291,0.00000053,0.00000137,
 -0.00000336,-0.00000031,0.00000049,0.00000714,0.00000203,-0.00000304,-
 0.00000183,0.00000107,-0.00000441,0.00000627,0.00000407,-0.00000552,-0
 .00000169,-0.00000002,0.00000176,-0.00000043,-0.00000549,0.00000585,-0
 .00000198,0.00000755,0.00000439,0.00000745,-0.00001065,-0.00001005,0.0
 0001191,-0.00000189,-0.00001307,0.00003237,-0.00000385,-0.00002594,0.0
 0000777,-0.00000282,0.00000312,0.00004438,0.00003428,0.00002461,0.0000
 0770,-0.00000994,-0.00000358,-0.00002860,0.00005129,0.00001141,-0.0000
 1078,-0.00000686,-0.00000942,0.00000803,-0.00002663,0.00001236,-0.0000
 0674,-0.00000299,0.00000185,0.00002025,-0.00001701,-0.00002572,0.00001
 638,0.00000483,-0.00000036,-0.00001951,0.00001676,0.00002938,-0.000006
 32,0.00000186,0.00000060,-0.00000014,0.00000707,0.00000700,0.00000796,
 -0.00000183,-0.00000426,-0.00000745,-0.00001062,-0.00001193,-0.0000656
 8,0.00000600,-0.00000173,-0.00000048,-0.00000740,-0.00000615,0.0000300
 8,-0.00005173,0.00002097,0.00002063,-0.00003186,-0.00002628,-0.0000846
 9,0.00018371,0.00007243,0.00000310,0.00001661,0.00000395,-0.00006566,-
 0.00001521,-0.00006061,-0.00018980,-0.00006209,0.00009008,0.00001515,-
 0.00007091,-0.00001808,0.00000369,-0.00002070,-0.00000315,0.00003784,-
 0.00004189,-0.00003871,0.00004673,0.00018674,0.00019204,-0.00001411,0.
 00002736,0.00001776,0.00000163,0.00000065,0.00000083,0.00000432,-0.000
 00184,-0.00001141,0.00000118,-0.00000409,0.00000360,0.00003742,-0.0000
 8094,0.00004419,-0.00013015,0.00025541,-0.00001345,0.00001266,-0.00002
 011,-0.00002081,-0.00000407,-0.00001805,-0.00000809,-0.00021523,-0.000
 16249,0.00018595,0.00001180,0.00001874,-0.00001227,0.00012695,0.000104
 50,0.00002221,-0.00104157,-0.00103942,-0.00102619,-0.00051470,-0.00087
 773,-0.00009857,0.00073706,0.00105756,0.00066233,-0.00001172,0.0000045
 5,-0.00005292,-0.00002028,-0.00002420,-0.00002645,0.00008872,-0.000058
 12,-0.00018837,0.00006924,0.00004053,0.00001367,-0.00003684,-0.0000206
 8,-0.00004844,-0.00001984,0.00000429,0.00002354,-0.00001284,-0.0000058
 1,-0.00004017,0.00005369,0.00006491,0.00004908,-0.00472055,0.00512280,
 0.00306581,0.00392311,-0.00297837,-0.00044873,0.00112543,0.00094727,-0
 .00425533,0.00091625,-0.00225550,-0.00031810,0.26405221,-0.03206896,-0
 .22364855,-0.25029329,0.02771292,0.21410165,-0.00000900,-0.00001450,-0
 .00001069,0.00001084,0.00005098,-0.00000182,0.00002599,-0.00002099,0.0
 0000717,0.00000208,0.00003261,-0.00000588,-0.00000999,0.00000866,-0.00
 000046,-0.00004115,-0.00003182,-0.00005926,-0.00001581,-0.00000663,-0.
 00000263,0.00004360,-0.00000643,0.00001790,0.00004379,-0.00000442,0.00
 002429,0.00000651,0.00001180,0.00000648,-0.00002406,-0.00000534,0.0000
 1942,0.00005233,0.00000232,-0.00000484,-0.00004654,-0.00000813,0.00000
 122,-0.00000277,-0.00002495,0.00003061,0.00002350,0.00000666,0.0000113
 4,-0.00001165,0.00000166,0.00000882,0.00002805,0.00000675,-0.00001013,
 0.00000243,0.00000413,-0.00001973,0.00002329,0.00001951,-0.00002357,-0
 .00000324,0.00000086,0.00001048,-0.00000712,-0.00002435,0.00001923,0.0
 0001798,0.00000515,0.00000572,0.00008742,-0.00002269,0.00001118,0.0000
 9893,0.00012073,0.00017486,0.00006981,-0.00000409,-0.00005047,0.000033
 61,-0.00001302,0.00002007,-0.00013520,-0.00003924,-0.00039945,-0.00000
 704,-0.00003900,-0.00000125,-0.00013390,0.00033118,0.00007926,-0.00000
 436,-0.00000589,0.00003506,-0.00040146,-0.00013062,0.00019243,-0.00002
 781,-0.00001447,-0.00001621,0.00007012,-0.00008315,-0.00009410,0.00010
 518,0.00005258,0.00000505,-0.00012210,0.00006453,0.00017130,0.00000759
 ,0.00002125,0.00001805,0.00003771,0.00008221,0.00009474,0.00004532,-0.
 00000902,-0.00001854,-0.00028347,-0.00023365,-0.00011228,-0.00020563,0
 .00004897,-0.00017911,-0.00001733,-0.00001640,-0.00001033,0.00072393,-
 0.00107390,-0.00023168,0.00006324,-0.00011752,-0.00006251,-0.00136482,
 0.00338670,0.00076196,0.00060575,-0.00026392,0.00062532,0.00005518,0.0
 0021940,0.00009554,-0.00196079,-0.00221078,-0.00225197,0.00019483,-0.0
 0007343,0.00004656,-0.00001535,-0.00008996,0.00000100,0.00010579,-0.00
 007083,-0.00005673,0.00021391,0.00043057,0.00035271,-0.00015979,0.0000
 0097,0.00014391,-0.00000354,0.00002912,-0.00000631,0.00002140,0.000016
 88,-0.00001195,-0.00000307,-0.00009744,0.00000597,-0.00002113,-0.00010
 750,-0.00004311,-0.00023577,0.00057386,-0.00004192,0.00002639,-0.00001
 652,-0.00004380,-0.00001411,-0.00007685,0.00001036,0.00040607,0.000281
 31,-0.00024889,0.00005442,0.00038303,0.00012684,-0.00017554,-0.0001003
 2,-0.00011062,0.00032898,-0.00069803,0.00055808,-0.00148802,-0.0004285
 3,-0.00015586,0.00279854,-0.00153031,0.00118345,-0.00030435,-0.0003275
 6,-0.00014676,0.00029096,0.00049214,0.00018091,-0.00015464,0.00017395,
 -0.00017929,0.00001445,-0.00005959,0.00003947,0.00000866,-0.00007382,-
 0.00008597,0.00001717,0.00013838,0.00002111,0.00011663,-0.00011311,-0.
 00013285,-0.00026453,-0.00001928,-0.00012943,0.01863072,-0.00839969,-0
 .01352876,-0.00788440,0.00667980,0.00137993,-0.00998601,-0.00640394,0.
 01804825,-0.00369152,-0.00350357,0.00679175,-0.12805836,0.09896846,-0.
 05223005,-0.02498291,0.02903447,-0.01397649,0.15676516,0.00002589,0.00
 001411,0.00001870,-0.00004093,-0.00006580,-0.00000351,-0.00002789,0.00
 001445,-0.00000261,-0.00001079,-0.00004151,0.00000535,0.00001113,-0.00
 000771,-0.00000079,0.00006452,0.00006649,0.00008331,0.00002631,0.00000
 040,0.00000053,-0.00006343,0.00001099,-0.00002419,-0.00002808,0.000054
 82,-0.00004499,-0.00001918,-0.00001039,-0.00003100,0.00001927,0.000010
 09,-0.00002754,-0.00004917,-0.00004043,0.00001032,-0.00001303,0.000044
 53,0.00000963,0.00002830,-0.00001006,-0.00002751,0.00000017,-0.0000129
 1,-0.00000428,-0.00000186,0.00000659,0.00000051,0.00000561,-0.00000324
 ,-0.00000144,-0.00002971,-0.00000091,0.00002424,-0.00001747,-0.0000212
 8,0.00001528,0.00000593,-0.00000314,-0.00000355,0.00001762,0.00000553,
 -0.00001735,-0.00000864,0.00000380,-0.00001329,-0.00000200,-0.00002061
 ,-0.00000956,-0.00000842,-0.00008439,0.00003025,-0.00006908,-0.0000287
 9,0.00002568,-0.00000176,0.00002520,-0.00000627,0.00003080,-0.00017822
 ,0.00016621,0.00000900,0.00004907,-0.00003676,0.00020733,-0.00035727,0
 .00004386,-0.00000209,0.00004030,-0.00003858,0.00011195,0.00039893,-0.
 00017096,0.00002836,0.00000813,0.00003267,-0.00011004,0.00009079,0.000
 16963,-0.00018075,-0.00009865,-0.00000621,0.00013922,-0.00009807,-0.00
 027680,-0.00002063,0.00000191,-0.00006601,-0.00003175,-0.00012494,-0.0
 0011686,-0.00006296,0.00002541,0.00002166,0.00034796,0.00026426,0.0001
 4259,0.00034246,-0.00003266,0.00024248,0.00002904,0.00002661,-0.000006
 57,-0.00043525,0.00111412,0.00020103,-0.00001631,0.00008154,0.00003247
 ,0.00134376,-0.00357039,-0.00066511,-0.00134339,-0.00011006,-0.0009347
 9,0.00016887,-0.00004356,0.00011376,0.00126110,0.00329288,0.00080808,-
 0.00001308,0.00000159,0.00004812,-0.00004873,0.00016985,-0.00004755,-0
 .00007913,-0.00009089,-0.00002492,-0.00014417,-0.00063832,-0.00021824,
 0.00013862,-0.00008497,-0.00018316,-0.00002098,0.00000725,0.00000482,-
 0.00000138,-0.00002348,0.00000467,0.00000868,0.00009218,-0.00000176,-0
 .00000967,0.00015260,0.00011918,0.00034663,-0.00076154,0.00007856,-0.0
 0006237,0.00005196,0.00002569,0.00001716,0.00007449,0.00000108,-0.0003
 1381,-0.00098945,0.00020069,-0.00004508,-0.00042198,-0.00012461,0.0002
 2529,0.00029791,0.00025734,0.00019604,0.00145785,-0.00125387,0.0005259
 1,0.00077522,-0.00094043,-0.00450707,-0.00571783,-0.00090084,0.0003196
 5,0.00041367,0.00021788,0.00024753,0.00024961,0.00028245,0.00002879,-0
 .00049120,0.00043223,-0.00006223,0.00007671,-0.00008261,0.00005958,0.0
 0015275,0.00020822,-0.00000493,-0.00018063,-0.00006000,-0.00026230,0.0
 0017811,0.00009322,0.00011255,-0.00022005,-0.00002690,-0.01829808,0.00
 369953,0.02158872,0.00700841,-0.00918872,-0.00302705,-0.00570451,-0.00
 220870,-0.02307488,0.00370015,0.00466846,-0.00569546,0.12542501,-0.169
 34873,0.10034206,0.00465393,-0.00198504,0.00414099,-0.11506638,0.17914
 589,-0.00001569,-0.00001285,-0.00001150,0.00002308,0.00005358,0.000003
 42,0.00002540,-0.00001654,0.00000473,0.00000534,0.00003491,-0.00000318
 ,-0.00001082,0.00000542,-0.00000339,-0.00004551,-0.00004509,-0.0000651
 2,-0.00001739,-0.00000572,-0.00000527,0.00004895,-0.00000755,0.0000188
 6,0.00004552,-0.00001611,0.00004186,0.00000751,0.00000873,0.00001039,-
 0.00002137,-0.00001080,0.00001522,0.00005016,0.00001311,-0.00000901,-0
 .00002931,-0.00002947,-0.00002816,0.00000227,-0.00000850,0.00004535,0.
 00000574,0.00000920,0.00000282,-0.00000851,-0.00000559,-0.00000347,0.0
 0001510,0.00000500,-0.00000991,0.00000937,0.00000337,-0.00002382,0.000
 02377,0.00002108,-0.00001977,-0.00000810,0.00000021,0.00000311,-0.0000
 0872,-0.00001525,0.00002311,0.00002722,0.00002197,0.00005641,0.0000663
 7,-0.00004432,-0.00003502,-0.00001651,0.00006127,-0.00002608,0.0001193
 5,-0.00001797,-0.00014011,0.00002831,-0.00002150,0.00000905,0.00016374
 ,0.00014698,-0.00005430,0.00004019,-0.00005556,0.00001023,-0.00029249,
 0.00042740,0.00009118,-0.00002860,-0.00002674,-0.00000559,-0.00007253,
 -0.00020047,0.00027504,-0.00002449,0.00000371,-0.00001132,0.00010721,-
 0.00010742,-0.00015452,0.00015926,0.00006495,-0.00003376,-0.00022565,0
 .00012810,0.00029854,0.00000100,0.00000386,0.00003525,0.00007178,0.000
 14508,0.00007477,0.00005752,-0.00002244,-0.00001487,-0.00038967,-0.000
 24022,-0.00021009,-0.00030458,0.00004772,-0.00022791,-0.00001192,-0.00
 005868,-0.00001231,0.00092654,-0.00183452,-0.00019938,0.00016097,-0.00
 035466,-0.00017132,-0.00163355,0.00445878,0.00142263,0.00070764,-0.000
 09319,0.00069084,-0.00005169,0.00010707,-0.00003085,-0.00239969,-0.002
 49662,-0.00172677,0.00015926,-0.00010838,0.00008144,-0.00000846,-0.000
 10500,-0.00002145,0.00009666,-0.00012190,-0.00007782,0.00018783,0.0006
 8164,0.00046298,-0.00015689,0.00000948,0.00019628,0.00000216,0.0000147
 8,-0.00000315,0.00001302,0.00000510,-0.00001957,-0.00000312,-0.0001068
 0,-0.00000304,0.00003268,-0.00016886,-0.00000597,-0.00036366,0.0008283
 2,-0.00006386,0.00004662,-0.00004478,-0.00005789,-0.00001582,-0.000082
 53,-0.00001205,0.00016601,0.00044805,-0.00003853,0.00012452,0.00052397
 ,0.00012121,-0.00009410,-0.00005373,-0.00013675,-0.00012214,-0.0022635
 8,-0.00001549,-0.00084034,-0.00044182,0.00033522,0.00214601,0.00106397
 ,0.00190768,-0.00012519,-0.00014204,-0.00013005,0.00011078,0.00018245,
 -0.00005566,-0.00007039,0.00022026,-0.00035664,0.00007751,-0.00002025,
 0.00005590,-0.00004233,-0.00010041,-0.00013303,0.00001152,0.00014515,0
 .00004659,0.00017665,-0.00012655,-0.00030103,-0.00018314,-0.00008675,-
 0.00017767,0.00721022,0.00572156,-0.01967570,-0.00399640,0.00382906,0.
 00431152,0.01187171,-0.01354969,0.00600630,-0.00183072,-0.00489987,0.0
 0493089,-0.08695721,0.12043752,-0.12225789,0.02173635,-0.01966673,0.01
 182026,0.05335790,-0.09204536,0.11337096\\0.00000017,-0.00000024,-0.00
 000069,0.00000006,0.00000001,-0.00000069,0.00000021,-0.00000023,-0.000
 00090,0.00000015,-0.00000021,-0.00000074,0.00000024,-0.00000038,-0.000
 00063,0.00000004,0.00000001,-0.00000044,0.00000004,0.00000012,-0.00000
 068,0.00000010,-0.00000007,-0.00000062,0.,0.00000005,-0.00000035,0.000
 00013,-0.00000007,-0.00000035,-0.00000006,0.00000027,-0.00000030,0.000
 00002,0.00000017,-0.00000036,-0.00000002,0.00000003,0.00000001,-0.0000
 0010,0.00000023,-0.00000005,0.00000005,-0.00000006,-0.00000003,-0.0000
 0022,0.00000045,0.00000002,-0.00000018,0.00000035,-0.00000014,-0.00000
 018,0.00000037,0.00000031,-0.00000019,0.00000039,0.00000025,-0.0000000
 9,0.00000014,0.00000024,-0.00000006,0.00000021,0.00000037,0.00000014,0
 .00000033,0.00000011,0.00000008,-0.00000019,0.00000010,0.00000009,0.00
 000014,0.00000006,-0.00000011,-0.00000023,0.00000024,0.00000010,-0.000
 00020,0.00000019,-0.00000026,0.00000013,0.00000041,-0.00000018,0.00000
 031,0.00000001,0.00000006,-0.00000027,0.00000022,0.00000011,-0.0000003
 6,0.00000034,-0.00000006,0.00000020,0.00000024,0.,-0.00000035,-0.00000
 045,0.00000009,-0.00000021,-0.00000043,-0.00000014,0.00000020,-0.00000
 046,0.00000007,-0.00000005,-0.00000021,0.,0.00000001,-0.00000011,0.000
 00004,0.00000024,-0.00000030,-0.00000008,0.00000026,-0.00000054,0.0000
 0004,0.00000003,-0.00000032,0.00000010,-0.00000013,-0.00000017,-0.0000
 0007,0.00000028,-0.00000050,0.,0.00000035,-0.00000033,-0.00000010,0.00
 000022,-0.00000022,0.00000031,-0.00000027,-0.00000023,0.00000010,-0.00
 000015,0.00000065,0.00000008,-0.00000039,0.00000034,-0.00000003,-0.000
 00006,0.00000040,0.00000008,-0.00000010,-0.00000019,0.00000006,-0.0000
 0003,-0.00000029,0.,0.00000007,-0.00000037,-0.00000005,-0.00000005,-0.
 00000022,0.00000002,0.00000002,-0.00000064,0.00000007,0.00000007,-0.00
 000055,0.00000002,0.00000030,-0.00000059,0.,0.00000009,-0.00000084,0.0
 0000006,-0.00000023,-0.00000081,0.00000018,-0.00000039,-0.00000019,0.0
 0000018,-0.00000028,-0.00000044,0.00000014,-0.00000030,-0.00000052,0.0
 0000008,-0.00000033,0.00000063,-0.00000004,-0.00000008,0.00000088,0.00
 000007,-0.00000043,0.00000083,-0.00000020,-0.00000014,0.00000086,-0.00
 000025,0.00000011,0.00000071,-0.00000004,0.00000035,0.00000059,-0.0000
 0011,0.00000027,0.00000058,-0.00000019,0.00000016,0.00000098,0.,-0.000
 00015,0.00000081,-0.00000007,-0.00000009,0.00000064,0.00000010,-0.0000
 0033,0.00000071,0.00000001,-0.00000015,0.00000095,0.00000006,0.0000003
 5,0.00000026,-0.00000008,-0.00000018,0.00000060,0.00000021,0.,-0.00000
 018,-0.00000039,-0.00000075,0.00000079,0.00000017,0.00000037,0.0000003
 3,-0.00000015,-0.00000012,0.00000020,-0.00000022,0.00000014,0.00000039
 ,-0.00000012,0.00000011,0.00000059,-0.00000006,0.00000033,0.00000020\\
 \@


 THIS CURIOUS WORLD WHICH WE INHABIT IS MORE WONDERFUL THAN IT IS CONVENIENT;
 MORE BEAUTIFUL THAN IT IS USEFUL;
 IT IS MORE TO BE ADMIRED THAN IT IS TO BE USED.

                                                                 -- THOREAU
 Job cpu time:      13 days 14 hours 25 minutes 35.4 seconds.
 Elapsed time:       0 days 16 hours 34 minutes 42.9 seconds.
 File lengths (MBytes):  RWF=  32072 Int=      0 D2E=      0 Chk=    137 Scr=      1
 Normal termination of Gaussian 16 at Wed Mar 20 03:04:06 2024.
