 Entering Gaussian System, Link 0=g16
 Input=2water-ofreq.gjf
 Output=2water-ofreq.log
 Initial command:
 /packages/apps/gaussian/g16/g16/l1.exe "/scratch/mdturne9/3-5-methyl/oFreq/Gau-1498411.inp" -scrdir="/scratch/mdturne9/3-5-methyl/oFreq/"
 Entering Link 1 = /packages/apps/gaussian/g16/g16/l1.exe PID=   1498412.
  
 Copyright (c) 1988,1990,1992,1993,1995,1998,2003,2009,2016,
            Gaussian, Inc.  All Rights Reserved.
  
 This is part of the Gaussian(R) 16 program.  It is based on
 the Gaussian(R) 09 system (copyright 2009, Gaussian, Inc.),
 the Gaussian(R) 03 system (copyright 2003, Gaussian, Inc.),
 the Gaussian(R) 98 system (copyright 1998, Gaussian, Inc.),
 the Gaussian(R) 94 system (copyright 1995, Gaussian, Inc.),
 the Gaussian 92(TM) system (copyright 1992, Gaussian, Inc.),
 the Gaussian 90(TM) system (copyright 1990, Gaussian, Inc.),
 the Gaussian 88(TM) system (copyright 1988, Gaussian, Inc.),
 the Gaussian 86(TM) system (copyright 1986, Carnegie Mellon
 University), and the Gaussian 82(TM) system (copyright 1983,
 Carnegie Mellon University). Gaussian is a federally registered
 trademark of Gaussian, Inc.
  
 This software contains proprietary and confidential information,
 including trade secrets, belonging to Gaussian, Inc.
  
 This software is provided under written license and may be
 used, copied, transmitted, or stored only in accord with that
 written license.
  
 The following legend is applicable only to US Government
 contracts under FAR:
  
                    RESTRICTED RIGHTS LEGEND
  
 Use, reproduction and disclosure by the US Government is
 subject to restrictions as set forth in subparagraphs (a)
 and (c) of the Commercial Computer Software - Restricted
 Rights clause in FAR 52.227-19.
  
 Gaussian, Inc.
 340 Quinnipiac St., Bldg. 40, Wallingford CT 06492
  
  
 ---------------------------------------------------------------
 Warning -- This program may not be used in any manner that
 competes with the business of Gaussian, Inc. or will provide
 assistance to any competitor of Gaussian, Inc.  The licensee
 of this program is prohibited from giving any competitor of
 Gaussian, Inc. access to this program.  By using this program,
 the user acknowledges that Gaussian, Inc. is engaged in the
 business of creating and licensing software in the field of
 computational chemistry and represents and warrants to the
 licensee that it is not a competitor of Gaussian, Inc. and that
 it will not use this program in any manner prohibited above.
 ---------------------------------------------------------------
  

 Cite this work as:
 Gaussian 16, Revision A.03,
 M. J. Frisch, G. W. Trucks, H. B. Schlegel, G. E. Scuseria, 
 M. A. Robb, J. R. Cheeseman, G. Scalmani, V. Barone, 
 G. A. Petersson, H. Nakatsuji, X. Li, M. Caricato, A. V. Marenich, 
 J. Bloino, B. G. Janesko, R. Gomperts, B. Mennucci, H. P. Hratchian, 
 J. V. Ortiz, A. F. Izmaylov, J. L. Sonnenberg, D. Williams-Young, 
 F. Ding, F. Lipparini, F. Egidi, J. Goings, B. Peng, A. Petrone, 
 T. Henderson, D. Ranasinghe, V. G. Zakrzewski, J. Gao, N. Rega, 
 G. Zheng, W. Liang, M. Hada, M. Ehara, K. Toyota, R. Fukuda, 
 J. Hasegawa, M. Ishida, T. Nakajima, Y. Honda, O. Kitao, H. Nakai, 
 T. Vreven, K. Throssell, J. A. Montgomery, Jr., J. E. Peralta, 
 F. Ogliaro, M. J. Bearpark, J. J. Heyd, E. N. Brothers, K. N. Kudin, 
 V. N. Staroverov, T. A. Keith, R. Kobayashi, J. Normand, 
 K. Raghavachari, A. P. Rendell, J. C. Burant, S. S. Iyengar, 
 J. Tomasi, M. Cossi, J. M. Millam, M. Klene, C. Adamo, R. Cammi, 
 J. W. Ochterski, R. L. Martin, K. Morokuma, O. Farkas, 
 J. B. Foresman, and D. J. Fox, Gaussian, Inc., Wallingford CT, 2016.
 
 ******************************************
 Gaussian 16:  ES64L-G16RevA.03 25-Dec-2016
                16-Mar-2024 
 ******************************************
 %nprocshared=20
 Will use up to   20 processors via shared memory.
 %mem=13GB
 %chk=2water-ofreq.chk
 ---------------------------------
 #p opt freq wb97xd/6-311+g(2d,2p)
 ---------------------------------
 1/18=20,19=15,26=3,38=1/1,3;
 2/9=110,12=2,17=6,18=5,40=1/2;
 3/5=4,6=6,7=212,11=2,25=1,30=1,71=1,74=-58/1,2,3;
 4//1;
 5/5=2,38=5/2;
 6/7=2,8=2,9=2,10=2,28=1/1;
 7//1,2,3,16;
 1/18=20,19=15,26=3/3(2);
 2/9=110/2;
 99//99;
 2/9=110/2;
 3/5=4,6=6,7=212,11=2,25=1,30=1,71=1,74=-58/1,2,3;
 4/5=5,16=3,69=1/1;
 5/5=2,38=5/2;
 7//1,2,3,16;
 1/18=20,19=15,26=3/3(-5);
 2/9=110/2;
 6/7=2,8=2,9=2,10=2,19=2,28=1/1;
 99/9=1/99;
 Leave Link    1 at Sat Mar 16 16:07:01 2024, MaxMem=  1744830464 cpu:               3.0 elap:               0.2
 (Enter /packages/apps/gaussian/g16/g16/l101.exe)
 -----------
 carb2water2
 -----------
 Symbolic Z-matrix:
 Charge =  0 Multiplicity = 1
 C                    -4.70979   3.63328   0.78461 
 C                    -4.80235   2.17383   1.21285 
 H                    -5.18553   4.28516   1.5172 
 H                    -3.67194   3.94941   0.67692 
 H                    -5.20608   3.79095  -0.17528 
 C                    -4.20304   1.18649   0.19639 
 H                    -4.29798   2.03964   2.1739 
 H                    -5.84972   1.90781   1.3753 
 C                    -4.4829   -0.25722   0.64971 
 H                    -4.72951   1.33482  -0.75259 
 H                    -4.01591  -0.43628   1.62223 
 H                    -5.55993  -0.33062   0.82142 
 C                    -4.08509  -1.38426  -0.32216 
 C                    -4.85207  -2.67286   0.01479 
 H                    -4.38972  -1.07824  -1.3287 
 H                    -4.61005  -2.97917   1.03632 
 H                    -5.92099  -2.44673   0.01019 
 C                    -4.57115  -3.82074  -0.94724 
 H                    -5.16952  -4.69653  -0.69633 
 H                    -4.80949  -3.53537  -1.97397 
 H                    -3.5207   -4.11148  -0.92016 
 C                    -2.58775  -1.61737  -0.35378 
 C                    -1.85228  -1.36149  -1.50319 
 C                    -1.90018  -2.02725   0.78691 
 C                    -0.46931  -1.44674  -1.49776 
 H                    -2.36323  -1.03452  -2.39983 
 C                    -0.51846  -2.10121   0.80452 
 H                    -2.4458   -2.23171   1.69995 
 C                     0.21565  -1.79878  -0.34128 
 H                     0.08753  -1.18277  -2.38894 
 H                     0.00936  -2.32308   1.72535 
 C                    -2.73959   1.49078  -0.05322 
 C                    -2.31866   2.02047  -1.26733 
 C                    -1.77598   1.23995   0.92082 
 C                    -0.97412   2.25903  -1.51429 
 H                    -3.0486    2.22227  -2.04179 
 C                    -0.43207   1.45275   0.67536 
 H                    -2.07149   0.81729   1.87224 
 C                    -0.015     1.97007  -0.55069 
 H                    -0.66812   2.639    -2.4822 
 H                     0.32255   1.17739   1.40472 
 C                     1.45188   2.10712  -0.8291 
 H                     2.0165    1.36856  -0.2602 
 H                     1.67823   2.0031   -1.8885 
 C                     1.7108   -1.70512  -0.29293 
 H                     2.08915  -1.06521  -1.08728 
 H                     2.02986  -1.30559   0.66474 
 C                     3.51981   3.373    -0.74006 
 H                     3.98086   4.30978  -0.43429 
 H                     3.94603   2.5052   -0.21762 
 H                     3.61713   3.23426  -1.81448 
 C                     1.92874   3.6256    1.07187 
 H                     0.87763   3.76459   1.30915 
 H                     2.31517   2.71756   1.5526 
 H                     2.49336   4.51336   1.34793 
 C                     1.42869   4.56685  -1.12099 
 H                     1.55185   4.42178  -2.19185 
 H                     0.37194   4.60149  -0.87194 
 H                     1.91433   5.49048  -0.81518 
 C                     3.92473  -2.7034   -0.50836 
 H                     4.46562  -3.64339  -0.59914 
 H                     4.09616  -2.06785  -1.37307 
 H                     4.19431  -2.1543    0.40363 
 C                     2.19747  -3.91188   0.709 
 H                     2.39775  -3.35673   1.62256 
 H                     1.15646  -4.22141   0.68998 
 H                     2.8454   -4.78119   0.62625 
 C                     2.05706  -3.69421  -1.71241 
 H                     0.99708  -3.92889  -1.67415 
 H                     2.25899  -3.02254  -2.54321 
 H                     2.64035  -4.60543  -1.82129 
 N                     2.06364   3.43731  -0.40538 
 N                     2.45909  -3.02053  -0.45515 
 C                     3.59233   0.17422   1.32346 
 O                     3.99044  -0.90941   1.87579 
 O                     2.53364   0.77306   1.74038 
 O                     4.21991   0.63831   0.28624 
 O                     3.69672   0.19857  -2.20749 
 H                     4.54205   0.20986  -2.65352 
 H                     3.9174    0.3395   -1.23449 
 O                     1.86246  -1.73804   3.17477 
 H                     2.75674  -1.47908   2.81235 
 H                     1.45578  -0.86787   3.16831 
 
 Add virtual bond connecting atoms H80        and O77        Dist= 2.98D+00.
 Add virtual bond connecting atoms H82        and O75        Dist= 3.12D+00.
 Add virtual bond connecting atoms O75        and H63        Dist= 3.66D+00.
 Add virtual bond connecting atoms O76        and H54        Dist= 3.71D+00.
 Add virtual bond connecting atoms O77        and H50        Dist= 3.69D+00.
 ITRead=  0  0  0  0  0  0  0  0  0  0  0  0  0  0  0  0  0  0  0  0
 ITRead=  0  0  0  0  0  0  0  0  0  0  0  0  0  0  0  0  0  0  0  0
 ITRead=  0  0  0  0  0  0  0  0  0  0  0  0  0  0  0  0  0  0  0  0
 ITRead=  0  0  0  0  0  0  0  0  0  0  0  0  0  0  0  0  0  0  0  0
 ITRead=  0  0  0
 MicOpt= -1 -1 -1 -1 -1 -1 -1 -1 -1 -1 -1 -1 -1 -1 -1 -1 -1 -1 -1 -1
 MicOpt= -1 -1 -1 -1 -1 -1 -1 -1 -1 -1 -1 -1 -1 -1 -1 -1 -1 -1 -1 -1
 MicOpt= -1 -1 -1 -1 -1 -1 -1 -1 -1 -1 -1 -1 -1 -1 -1 -1 -1 -1 -1 -1
 MicOpt= -1 -1 -1 -1 -1 -1 -1 -1 -1 -1 -1 -1 -1 -1 -1 -1 -1 -1 -1 -1
 MicOpt= -1 -1 -1
 NAtoms=     83 NQM=       83 NQMF=       0 NMMI=      0 NMMIF=      0
                NMic=       0 NMicF=      0.
                    Isotopes and Nuclear Properties:
 (Nuclear quadrupole moments (NQMom) in fm**2, nuclear magnetic moments (NMagM)
  in nuclear magnetons)

  Atom         1           2           3           4           5           6           7           8           9          10
 IAtWgt=          12          12           1           1           1          12           1           1          12           1
 AtmWgt=  12.0000000  12.0000000   1.0078250   1.0078250   1.0078250  12.0000000   1.0078250   1.0078250  12.0000000   1.0078250
 NucSpn=           0           0           1           1           1           0           1           1           0           1
 AtZEff=  -0.0000000  -0.0000000  -0.0000000  -0.0000000  -0.0000000  -0.0000000  -0.0000000  -0.0000000  -0.0000000  -0.0000000
 NQMom=    0.0000000   0.0000000   0.0000000   0.0000000   0.0000000   0.0000000   0.0000000   0.0000000   0.0000000   0.0000000
 NMagM=    0.0000000   0.0000000   2.7928460   2.7928460   2.7928460   0.0000000   2.7928460   2.7928460   0.0000000   2.7928460
 AtZNuc=   6.0000000   6.0000000   1.0000000   1.0000000   1.0000000   6.0000000   1.0000000   1.0000000   6.0000000   1.0000000

  Atom        11          12          13          14          15          16          17          18          19          20
 IAtWgt=           1           1          12          12           1           1           1          12           1           1
 AtmWgt=   1.0078250   1.0078250  12.0000000  12.0000000   1.0078250   1.0078250   1.0078250  12.0000000   1.0078250   1.0078250
 NucSpn=           1           1           0           0           1           1           1           0           1           1
 AtZEff=  -0.0000000  -0.0000000  -0.0000000  -0.0000000  -0.0000000  -0.0000000  -0.0000000  -0.0000000  -0.0000000  -0.0000000
 NQMom=    0.0000000   0.0000000   0.0000000   0.0000000   0.0000000   0.0000000   0.0000000   0.0000000   0.0000000   0.0000000
 NMagM=    2.7928460   2.7928460   0.0000000   0.0000000   2.7928460   2.7928460   2.7928460   0.0000000   2.7928460   2.7928460
 AtZNuc=   1.0000000   1.0000000   6.0000000   6.0000000   1.0000000   1.0000000   1.0000000   6.0000000   1.0000000   1.0000000

  Atom        21          22          23          24          25          26          27          28          29          30
 IAtWgt=           1          12          12          12          12           1          12           1          12           1
 AtmWgt=   1.0078250  12.0000000  12.0000000  12.0000000  12.0000000   1.0078250  12.0000000   1.0078250  12.0000000   1.0078250
 NucSpn=           1           0           0           0           0           1           0           1           0           1
 AtZEff=  -0.0000000  -0.0000000  -0.0000000  -0.0000000  -0.0000000  -0.0000000  -0.0000000  -0.0000000  -0.0000000  -0.0000000
 NQMom=    0.0000000   0.0000000   0.0000000   0.0000000   0.0000000   0.0000000   0.0000000   0.0000000   0.0000000   0.0000000
 NMagM=    2.7928460   0.0000000   0.0000000   0.0000000   0.0000000   2.7928460   0.0000000   2.7928460   0.0000000   2.7928460
 AtZNuc=   1.0000000   6.0000000   6.0000000   6.0000000   6.0000000   1.0000000   6.0000000   1.0000000   6.0000000   1.0000000

  Atom        31          32          33          34          35          36          37          38          39          40
 IAtWgt=           1          12          12          12          12           1          12           1          12           1
 AtmWgt=   1.0078250  12.0000000  12.0000000  12.0000000  12.0000000   1.0078250  12.0000000   1.0078250  12.0000000   1.0078250
 NucSpn=           1           0           0           0           0           1           0           1           0           1
 AtZEff=  -0.0000000  -0.0000000  -0.0000000  -0.0000000  -0.0000000  -0.0000000  -0.0000000  -0.0000000  -0.0000000  -0.0000000
 NQMom=    0.0000000   0.0000000   0.0000000   0.0000000   0.0000000   0.0000000   0.0000000   0.0000000   0.0000000   0.0000000
 NMagM=    2.7928460   0.0000000   0.0000000   0.0000000   0.0000000   2.7928460   0.0000000   2.7928460   0.0000000   2.7928460
 AtZNuc=   1.0000000   6.0000000   6.0000000   6.0000000   6.0000000   1.0000000   6.0000000   1.0000000   6.0000000   1.0000000

  Atom        41          42          43          44          45          46          47          48          49          50
 IAtWgt=           1          12           1           1          12           1           1          12           1           1
 AtmWgt=   1.0078250  12.0000000   1.0078250   1.0078250  12.0000000   1.0078250   1.0078250  12.0000000   1.0078250   1.0078250
 NucSpn=           1           0           1           1           0           1           1           0           1           1
 AtZEff=  -0.0000000  -0.0000000  -0.0000000  -0.0000000  -0.0000000  -0.0000000  -0.0000000  -0.0000000  -0.0000000  -0.0000000
 NQMom=    0.0000000   0.0000000   0.0000000   0.0000000   0.0000000   0.0000000   0.0000000   0.0000000   0.0000000   0.0000000
 NMagM=    2.7928460   0.0000000   2.7928460   2.7928460   0.0000000   2.7928460   2.7928460   0.0000000   2.7928460   2.7928460
 AtZNuc=   1.0000000   6.0000000   1.0000000   1.0000000   6.0000000   1.0000000   1.0000000   6.0000000   1.0000000   1.0000000

  Atom        51          52          53          54          55          56          57          58          59          60
 IAtWgt=           1          12           1           1           1          12           1           1           1          12
 AtmWgt=   1.0078250  12.0000000   1.0078250   1.0078250   1.0078250  12.0000000   1.0078250   1.0078250   1.0078250  12.0000000
 NucSpn=           1           0           1           1           1           0           1           1           1           0
 AtZEff=  -0.0000000  -0.0000000  -0.0000000  -0.0000000  -0.0000000  -0.0000000  -0.0000000  -0.0000000  -0.0000000  -0.0000000
 NQMom=    0.0000000   0.0000000   0.0000000   0.0000000   0.0000000   0.0000000   0.0000000   0.0000000   0.0000000   0.0000000
 NMagM=    2.7928460   0.0000000   2.7928460   2.7928460   2.7928460   0.0000000   2.7928460   2.7928460   2.7928460   0.0000000
 AtZNuc=   1.0000000   6.0000000   1.0000000   1.0000000   1.0000000   6.0000000   1.0000000   1.0000000   1.0000000   6.0000000

  Atom        61          62          63          64          65          66          67          68          69          70
 IAtWgt=           1           1           1          12           1           1           1          12           1           1
 AtmWgt=   1.0078250   1.0078250   1.0078250  12.0000000   1.0078250   1.0078250   1.0078250  12.0000000   1.0078250   1.0078250
 NucSpn=           1           1           1           0           1           1           1           0           1           1
 AtZEff=  -0.0000000  -0.0000000  -0.0000000  -0.0000000  -0.0000000  -0.0000000  -0.0000000  -0.0000000  -0.0000000  -0.0000000
 NQMom=    0.0000000   0.0000000   0.0000000   0.0000000   0.0000000   0.0000000   0.0000000   0.0000000   0.0000000   0.0000000
 NMagM=    2.7928460   2.7928460   2.7928460   0.0000000   2.7928460   2.7928460   2.7928460   0.0000000   2.7928460   2.7928460
 AtZNuc=   1.0000000   1.0000000   1.0000000   6.0000000   1.0000000   1.0000000   1.0000000   6.0000000   1.0000000   1.0000000

  Atom        71          72          73          74          75          76          77          78          79          80
 IAtWgt=           1          14          14          12          16          16          16          16           1           1
 AtmWgt=   1.0078250  14.0030740  14.0030740  12.0000000  15.9949146  15.9949146  15.9949146  15.9949146   1.0078250   1.0078250
 NucSpn=           1           2           2           0           0           0           0           0           1           1
 AtZEff=  -0.0000000  -0.0000000  -0.0000000  -0.0000000  -0.0000000  -0.0000000  -0.0000000  -0.0000000  -0.0000000  -0.0000000
 NQMom=    0.0000000   2.0440000   2.0440000   0.0000000   0.0000000   0.0000000   0.0000000   0.0000000   0.0000000   0.0000000
 NMagM=    2.7928460   0.4037610   0.4037610   0.0000000   0.0000000   0.0000000   0.0000000   0.0000000   2.7928460   2.7928460
 AtZNuc=   1.0000000   7.0000000   7.0000000   6.0000000   8.0000000   8.0000000   8.0000000   8.0000000   1.0000000   1.0000000

  Atom        81          82          83
 IAtWgt=          16           1           1
 AtmWgt=  15.9949146   1.0078250   1.0078250
 NucSpn=           0           1           1
 AtZEff=  -0.0000000  -0.0000000  -0.0000000
 NQMom=    0.0000000   0.0000000   0.0000000
 NMagM=    0.0000000   2.7928460   2.7928460
 AtZNuc=   8.0000000   1.0000000   1.0000000
 Leave Link  101 at Sat Mar 16 16:07:02 2024, MaxMem=  1744830464 cpu:               9.8 elap:               0.8
 (Enter /packages/apps/gaussian/g16/g16/l103.exe)

 GradGradGradGradGradGradGradGradGradGradGradGradGradGradGradGradGradGrad
 Berny optimization.
 Initialization pass.
                           ----------------------------
                           !    Initial Parameters    !
                           ! (Angstroms and Degrees)  !
 --------------------------                            --------------------------
 ! Name  Definition              Value          Derivative Info.                !
 --------------------------------------------------------------------------------
 ! R1    R(1,2)                  1.5238         estimate D2E/DX2                !
 ! R2    R(1,3)                  1.0899         estimate D2E/DX2                !
 ! R3    R(1,4)                  1.0903         estimate D2E/DX2                !
 ! R4    R(1,5)                  1.092          estimate D2E/DX2                !
 ! R5    R(2,6)                  1.5386         estimate D2E/DX2                !
 ! R6    R(2,7)                  1.0936         estimate D2E/DX2                !
 ! R7    R(2,8)                  1.0928         estimate D2E/DX2                !
 ! R8    R(6,9)                  1.5389         estimate D2E/DX2                !
 ! R9    R(6,10)                 1.0953         estimate D2E/DX2                !
 ! R10   R(6,32)                 1.5154         estimate D2E/DX2                !
 ! R11   R(9,11)                 1.0936         estimate D2E/DX2                !
 ! R12   R(9,12)                 1.0931         estimate D2E/DX2                !
 ! R13   R(9,13)                 1.5405         estimate D2E/DX2                !
 ! R14   R(13,14)                1.537          estimate D2E/DX2                !
 ! R15   R(13,15)                1.0952         estimate D2E/DX2                !
 ! R16   R(13,22)                1.5157         estimate D2E/DX2                !
 ! R17   R(14,16)                1.0936         estimate D2E/DX2                !
 ! R18   R(14,17)                1.0926         estimate D2E/DX2                !
 ! R19   R(14,18)                1.5238         estimate D2E/DX2                !
 ! R20   R(18,19)                1.09           estimate D2E/DX2                !
 ! R21   R(18,20)                1.092          estimate D2E/DX2                !
 ! R22   R(18,21)                1.0903         estimate D2E/DX2                !
 ! R23   R(22,23)                1.3884         estimate D2E/DX2                !
 ! R24   R(22,24)                1.3935         estimate D2E/DX2                !
 ! R25   R(23,25)                1.3856         estimate D2E/DX2                !
 ! R26   R(23,26)                1.0826         estimate D2E/DX2                !
 ! R27   R(24,27)                1.3838         estimate D2E/DX2                !
 ! R28   R(24,28)                1.0831         estimate D2E/DX2                !
 ! R29   R(25,29)                1.3894         estimate D2E/DX2                !
 ! R30   R(25,30)                1.0835         estimate D2E/DX2                !
 ! R31   R(27,29)                1.394          estimate D2E/DX2                !
 ! R32   R(27,31)                1.0843         estimate D2E/DX2                !
 ! R33   R(29,45)                1.4989         estimate D2E/DX2                !
 ! R34   R(32,33)                1.3899         estimate D2E/DX2                !
 ! R35   R(32,34)                1.3929         estimate D2E/DX2                !
 ! R36   R(33,35)                1.3877         estimate D2E/DX2                !
 ! R37   R(33,36)                1.0832         estimate D2E/DX2                !
 ! R38   R(34,37)                1.3826         estimate D2E/DX2                !
 ! R39   R(34,38)                1.0822         estimate D2E/DX2                !
 ! R40   R(35,39)                1.3899         estimate D2E/DX2                !
 ! R41   R(35,40)                1.0839         estimate D2E/DX2                !
 ! R42   R(37,39)                1.3946         estimate D2E/DX2                !
 ! R43   R(37,41)                1.085          estimate D2E/DX2                !
 ! R44   R(39,42)                1.4993         estimate D2E/DX2                !
 ! R45   R(42,43)                1.0899         estimate D2E/DX2                !
 ! R46   R(42,44)                1.0883         estimate D2E/DX2                !
 ! R47   R(42,72)                1.5242         estimate D2E/DX2                !
 ! R48   R(45,46)                1.0879         estimate D2E/DX2                !
 ! R49   R(45,47)                1.0856         estimate D2E/DX2                !
 ! R50   R(45,73)                1.522          estimate D2E/DX2                !
 ! R51   R(48,49)                1.0879         estimate D2E/DX2                !
 ! R52   R(48,50)                1.0989         estimate D2E/DX2                !
 ! R53   R(48,51)                1.0877         estimate D2E/DX2                !
 ! R54   R(48,72)                1.4955         estimate D2E/DX2                !
 ! R55   R(50,77)                1.953          estimate D2E/DX2                !
 ! R56   R(52,53)                1.0865         estimate D2E/DX2                !
 ! R57   R(52,54)                1.0977         estimate D2E/DX2                !
 ! R58   R(52,55)                1.0877         estimate D2E/DX2                !
 ! R59   R(52,72)                1.4953         estimate D2E/DX2                !
 ! R60   R(54,76)                1.9657         estimate D2E/DX2                !
 ! R61   R(56,57)                1.0876         estimate D2E/DX2                !
 ! R62   R(56,58)                1.0863         estimate D2E/DX2                !
 ! R63   R(56,59)                1.0874         estimate D2E/DX2                !
 ! R64   R(56,72)                1.4802         estimate D2E/DX2                !
 ! R65   R(60,61)                1.0883         estimate D2E/DX2                !
 ! R66   R(60,62)                1.0868         estimate D2E/DX2                !
 ! R67   R(60,63)                1.0981         estimate D2E/DX2                !
 ! R68   R(60,73)                1.5005         estimate D2E/DX2                !
 ! R69   R(63,75)                1.9387         estimate D2E/DX2                !
 ! R70   R(64,65)                1.0876         estimate D2E/DX2                !
 ! R71   R(64,66)                1.0862         estimate D2E/DX2                !
 ! R72   R(64,67)                1.0874         estimate D2E/DX2                !
 ! R73   R(64,73)                1.4894         estimate D2E/DX2                !
 ! R74   R(68,69)                1.0863         estimate D2E/DX2                !
 ! R75   R(68,70)                1.0873         estimate D2E/DX2                !
 ! R76   R(68,71)                1.0874         estimate D2E/DX2                !
 ! R77   R(68,73)                1.4819         estimate D2E/DX2                !
 ! R78   R(74,75)                1.2798         estimate D2E/DX2                !
 ! R79   R(74,76)                1.2858         estimate D2E/DX2                !
 ! R80   R(74,77)                1.2981         estimate D2E/DX2                !
 ! R81   R(75,82)                1.6504         estimate D2E/DX2                !
 ! R82   R(77,80)                1.5791         estimate D2E/DX2                !
 ! R83   R(78,79)                0.9558         estimate D2E/DX2                !
 ! R84   R(78,80)                1.0076         estimate D2E/DX2                !
 ! R85   R(81,82)                0.9991         estimate D2E/DX2                !
 ! R86   R(81,83)                0.9605         estimate D2E/DX2                !
 ! A1    A(2,1,3)              110.9421         estimate D2E/DX2                !
 ! A2    A(2,1,4)              111.3026         estimate D2E/DX2                !
 ! A3    A(2,1,5)              110.9595         estimate D2E/DX2                !
 ! A4    A(3,1,4)              107.9674         estimate D2E/DX2                !
 ! A5    A(3,1,5)              107.8235         estimate D2E/DX2                !
 ! A6    A(4,1,5)              107.6934         estimate D2E/DX2                !
 ! A7    A(1,2,6)              113.9102         estimate D2E/DX2                !
 ! A8    A(1,2,7)              109.6624         estimate D2E/DX2                !
 ! A9    A(1,2,8)              109.4607         estimate D2E/DX2                !
 ! A10   A(6,2,7)              108.7945         estimate D2E/DX2                !
 ! A11   A(6,2,8)              108.3807         estimate D2E/DX2                !
 ! A12   A(7,2,8)              106.3507         estimate D2E/DX2                !
 ! A13   A(2,6,9)              109.6692         estimate D2E/DX2                !
 ! A14   A(2,6,10)             107.3529         estimate D2E/DX2                !
 ! A15   A(2,6,32)             110.8619         estimate D2E/DX2                !
 ! A16   A(9,6,10)             107.1491         estimate D2E/DX2                !
 ! A17   A(9,6,32)             114.3628         estimate D2E/DX2                !
 ! A18   A(10,6,32)            107.1138         estimate D2E/DX2                !
 ! A19   A(6,9,11)             109.7506         estimate D2E/DX2                !
 ! A20   A(6,9,12)             106.7653         estimate D2E/DX2                !
 ! A21   A(6,9,13)             116.9729         estimate D2E/DX2                !
 ! A22   A(11,9,12)            105.668          estimate D2E/DX2                !
 ! A23   A(11,9,13)            109.3285         estimate D2E/DX2                !
 ! A24   A(12,9,13)            107.7232         estimate D2E/DX2                !
 ! A25   A(9,13,14)            110.256          estimate D2E/DX2                !
 ! A26   A(9,13,15)            107.6708         estimate D2E/DX2                !
 ! A27   A(9,13,22)            112.3827         estimate D2E/DX2                !
 ! A28   A(14,13,15)           107.274          estimate D2E/DX2                !
 ! A29   A(14,13,22)           111.6294         estimate D2E/DX2                !
 ! A30   A(15,13,22)           107.3717         estimate D2E/DX2                !
 ! A31   A(13,14,16)           109.2195         estimate D2E/DX2                !
 ! A32   A(13,14,17)           108.2862         estimate D2E/DX2                !
 ! A33   A(13,14,18)           113.6504         estimate D2E/DX2                !
 ! A34   A(16,14,17)           106.1661         estimate D2E/DX2                !
 ! A35   A(16,14,18)           109.7511         estimate D2E/DX2                !
 ! A36   A(17,14,18)           109.4876         estimate D2E/DX2                !
 ! A37   A(14,18,19)           111.0229         estimate D2E/DX2                !
 ! A38   A(14,18,20)           110.8854         estimate D2E/DX2                !
 ! A39   A(14,18,21)           111.2732         estimate D2E/DX2                !
 ! A40   A(19,18,20)           107.8547         estimate D2E/DX2                !
 ! A41   A(19,18,21)           107.9955         estimate D2E/DX2                !
 ! A42   A(20,18,21)           107.6578         estimate D2E/DX2                !
 ! A43   A(13,22,23)           120.8134         estimate D2E/DX2                !
 ! A44   A(13,22,24)           121.0367         estimate D2E/DX2                !
 ! A45   A(23,22,24)           118.0677         estimate D2E/DX2                !
 ! A46   A(22,23,25)           120.9403         estimate D2E/DX2                !
 ! A47   A(22,23,26)           119.429          estimate D2E/DX2                !
 ! A48   A(25,23,26)           119.5326         estimate D2E/DX2                !
 ! A49   A(22,24,27)           121.2517         estimate D2E/DX2                !
 ! A50   A(22,24,28)           119.8013         estimate D2E/DX2                !
 ! A51   A(27,24,28)           118.8272         estimate D2E/DX2                !
 ! A52   A(23,25,29)           120.7232         estimate D2E/DX2                !
 ! A53   A(23,25,30)           119.6521         estimate D2E/DX2                !
 ! A54   A(29,25,30)           119.5366         estimate D2E/DX2                !
 ! A55   A(24,27,29)           120.2494         estimate D2E/DX2                !
 ! A56   A(24,27,31)           120.5168         estimate D2E/DX2                !
 ! A57   A(29,27,31)           119.0822         estimate D2E/DX2                !
 ! A58   A(25,29,27)           118.6526         estimate D2E/DX2                !
 ! A59   A(25,29,45)           120.1835         estimate D2E/DX2                !
 ! A60   A(27,29,45)           120.821          estimate D2E/DX2                !
 ! A61   A(6,32,33)            120.8539         estimate D2E/DX2                !
 ! A62   A(6,32,34)            121.1129         estimate D2E/DX2                !
 ! A63   A(33,32,34)           118.0316         estimate D2E/DX2                !
 ! A64   A(32,33,35)           120.9573         estimate D2E/DX2                !
 ! A65   A(32,33,36)           119.437          estimate D2E/DX2                !
 ! A66   A(35,33,36)           119.5811         estimate D2E/DX2                !
 ! A67   A(32,34,37)           121.3704         estimate D2E/DX2                !
 ! A68   A(32,34,38)           119.7486         estimate D2E/DX2                !
 ! A69   A(37,34,38)           118.7904         estimate D2E/DX2                !
 ! A70   A(33,35,39)           120.6291         estimate D2E/DX2                !
 ! A71   A(33,35,40)           119.5192         estimate D2E/DX2                !
 ! A72   A(39,35,40)           119.8107         estimate D2E/DX2                !
 ! A73   A(34,37,39)           120.2566         estimate D2E/DX2                !
 ! A74   A(34,37,41)           121.1732         estimate D2E/DX2                !
 ! A75   A(39,37,41)           118.4986         estimate D2E/DX2                !
 ! A76   A(35,39,37)           118.7013         estimate D2E/DX2                !
 ! A77   A(35,39,42)           121.8282         estimate D2E/DX2                !
 ! A78   A(37,39,42)           119.3246         estimate D2E/DX2                !
 ! A79   A(39,42,43)           110.3623         estimate D2E/DX2                !
 ! A80   A(39,42,44)           112.0553         estimate D2E/DX2                !
 ! A81   A(39,42,72)           114.8874         estimate D2E/DX2                !
 ! A82   A(43,42,44)           109.6084         estimate D2E/DX2                !
 ! A83   A(43,42,72)           103.7893         estimate D2E/DX2                !
 ! A84   A(44,42,72)           105.697          estimate D2E/DX2                !
 ! A85   A(29,45,46)           111.1069         estimate D2E/DX2                !
 ! A86   A(29,45,47)           110.1587         estimate D2E/DX2                !
 ! A87   A(29,45,73)           115.6569         estimate D2E/DX2                !
 ! A88   A(46,45,47)           108.9911         estimate D2E/DX2                !
 ! A89   A(46,45,73)           105.0429         estimate D2E/DX2                !
 ! A90   A(47,45,73)           105.5207         estimate D2E/DX2                !
 ! A91   A(49,48,50)           112.4556         estimate D2E/DX2                !
 ! A92   A(49,48,51)           110.4586         estimate D2E/DX2                !
 ! A93   A(49,48,72)           108.2222         estimate D2E/DX2                !
 ! A94   A(50,48,51)           109.5226         estimate D2E/DX2                !
 ! A95   A(50,48,72)           107.7708         estimate D2E/DX2                !
 ! A96   A(51,48,72)           108.2801         estimate D2E/DX2                !
 ! A97   A(48,50,77)           158.7315         estimate D2E/DX2                !
 ! A98   A(53,52,54)           110.533          estimate D2E/DX2                !
 ! A99   A(53,52,55)           110.0196         estimate D2E/DX2                !
 ! A100  A(53,52,72)           108.6113         estimate D2E/DX2                !
 ! A101  A(54,52,55)           112.4122         estimate D2E/DX2                !
 ! A102  A(54,52,72)           107.2617         estimate D2E/DX2                !
 ! A103  A(55,52,72)           107.8591         estimate D2E/DX2                !
 ! A104  A(52,54,76)           154.0586         estimate D2E/DX2                !
 ! A105  A(57,56,58)           109.8857         estimate D2E/DX2                !
 ! A106  A(57,56,59)           109.8536         estimate D2E/DX2                !
 ! A107  A(57,56,72)           109.0039         estimate D2E/DX2                !
 ! A108  A(58,56,59)           110.0539         estimate D2E/DX2                !
 ! A109  A(58,56,72)           109.3168         estimate D2E/DX2                !
 ! A110  A(59,56,72)           108.7005         estimate D2E/DX2                !
 ! A111  A(61,60,62)           111.1217         estimate D2E/DX2                !
 ! A112  A(61,60,63)           112.2811         estimate D2E/DX2                !
 ! A113  A(61,60,73)           107.8109         estimate D2E/DX2                !
 ! A114  A(62,60,63)           109.2472         estimate D2E/DX2                !
 ! A115  A(62,60,73)           107.8125         estimate D2E/DX2                !
 ! A116  A(63,60,73)           108.4219         estimate D2E/DX2                !
 ! A117  A(60,63,75)           157.8042         estimate D2E/DX2                !
 ! A118  A(65,64,66)           109.673          estimate D2E/DX2                !
 ! A119  A(65,64,67)           111.239          estimate D2E/DX2                !
 ! A120  A(65,64,73)           108.5862         estimate D2E/DX2                !
 ! A121  A(66,64,67)           109.9938         estimate D2E/DX2                !
 ! A122  A(66,64,73)           108.9782         estimate D2E/DX2                !
 ! A123  A(67,64,73)           108.3189         estimate D2E/DX2                !
 ! A124  A(69,68,70)           109.9738         estimate D2E/DX2                !
 ! A125  A(69,68,71)           110.2369         estimate D2E/DX2                !
 ! A126  A(69,68,73)           109.4531         estimate D2E/DX2                !
 ! A127  A(70,68,71)           109.9705         estimate D2E/DX2                !
 ! A128  A(70,68,73)           108.4849         estimate D2E/DX2                !
 ! A129  A(71,68,73)           108.6853         estimate D2E/DX2                !
 ! A130  A(42,72,48)           106.9217         estimate D2E/DX2                !
 ! A131  A(42,72,52)           110.3844         estimate D2E/DX2                !
 ! A132  A(42,72,56)           111.0624         estimate D2E/DX2                !
 ! A133  A(48,72,52)           108.3214         estimate D2E/DX2                !
 ! A134  A(48,72,56)           110.0166         estimate D2E/DX2                !
 ! A135  A(52,72,56)           110.0488         estimate D2E/DX2                !
 ! A136  A(45,73,60)           107.5383         estimate D2E/DX2                !
 ! A137  A(45,73,64)           110.3384         estimate D2E/DX2                !
 ! A138  A(45,73,68)           110.4826         estimate D2E/DX2                !
 ! A139  A(60,73,64)           109.0133         estimate D2E/DX2                !
 ! A140  A(60,73,68)           109.3279         estimate D2E/DX2                !
 ! A141  A(64,73,68)           110.0851         estimate D2E/DX2                !
 ! A142  A(75,74,76)           120.7001         estimate D2E/DX2                !
 ! A143  A(75,74,77)           119.8134         estimate D2E/DX2                !
 ! A144  A(76,74,77)           119.3836         estimate D2E/DX2                !
 ! A145  A(63,75,74)           104.4005         estimate D2E/DX2                !
 ! A146  A(63,75,82)           106.7314         estimate D2E/DX2                !
 ! A147  A(74,75,82)           107.7376         estimate D2E/DX2                !
 ! A148  A(54,76,74)           121.4155         estimate D2E/DX2                !
 ! A149  A(50,77,74)           118.6918         estimate D2E/DX2                !
 ! A150  A(50,77,80)            84.5812         estimate D2E/DX2                !
 ! A151  A(74,77,80)           127.5343         estimate D2E/DX2                !
 ! A152  A(79,78,80)           104.7894         estimate D2E/DX2                !
 ! A153  A(82,81,83)            98.1474         estimate D2E/DX2                !
 ! A154  A(75,82,81)           164.6781         estimate D2E/DX2                !
 ! A155  L(77,80,78,1,-1)      177.6046         estimate D2E/DX2                !
 ! A156  L(77,80,78,1,-2)      177.812          estimate D2E/DX2                !
 ! D1    D(3,1,2,6)            177.5516         estimate D2E/DX2                !
 ! D2    D(3,1,2,7)            -60.2633         estimate D2E/DX2                !
 ! D3    D(3,1,2,8)             56.0523         estimate D2E/DX2                !
 ! D4    D(4,1,2,6)            -62.2002         estimate D2E/DX2                !
 ! D5    D(4,1,2,7)             59.9849         estimate D2E/DX2                !
 ! D6    D(4,1,2,8)            176.3006         estimate D2E/DX2                !
 ! D7    D(5,1,2,6)             57.7133         estimate D2E/DX2                !
 ! D8    D(5,1,2,7)            179.8984         estimate D2E/DX2                !
 ! D9    D(5,1,2,8)            -63.786          estimate D2E/DX2                !
 ! D10   D(1,2,6,9)           -173.896          estimate D2E/DX2                !
 ! D11   D(1,2,6,10)           -57.8078         estimate D2E/DX2                !
 ! D12   D(1,2,6,32)            58.8729         estimate D2E/DX2                !
 ! D13   D(7,2,6,9)             63.4423         estimate D2E/DX2                !
 ! D14   D(7,2,6,10)           179.5306         estimate D2E/DX2                !
 ! D15   D(7,2,6,32)           -63.7888         estimate D2E/DX2                !
 ! D16   D(8,2,6,9)            -51.7996         estimate D2E/DX2                !
 ! D17   D(8,2,6,10)            64.2886         estimate D2E/DX2                !
 ! D18   D(8,2,6,32)          -179.0307         estimate D2E/DX2                !
 ! D19   D(2,6,9,11)           -60.9871         estimate D2E/DX2                !
 ! D20   D(2,6,9,12)            53.0826         estimate D2E/DX2                !
 ! D21   D(2,6,9,13)           173.7502         estimate D2E/DX2                !
 ! D22   D(10,6,9,11)         -177.2042         estimate D2E/DX2                !
 ! D23   D(10,6,9,12)          -63.1345         estimate D2E/DX2                !
 ! D24   D(10,6,9,13)           57.5331         estimate D2E/DX2                !
 ! D25   D(32,6,9,11)           64.2538         estimate D2E/DX2                !
 ! D26   D(32,6,9,12)          178.3235         estimate D2E/DX2                !
 ! D27   D(32,6,9,13)          -61.0088         estimate D2E/DX2                !
 ! D28   D(2,6,32,33)         -109.5067         estimate D2E/DX2                !
 ! D29   D(2,6,32,34)           70.962          estimate D2E/DX2                !
 ! D30   D(9,6,32,33)          125.883          estimate D2E/DX2                !
 ! D31   D(9,6,32,34)          -53.6482         estimate D2E/DX2                !
 ! D32   D(10,6,32,33)           7.321          estimate D2E/DX2                !
 ! D33   D(10,6,32,34)        -172.2102         estimate D2E/DX2                !
 ! D34   D(6,9,13,14)         -159.8356         estimate D2E/DX2                !
 ! D35   D(6,9,13,15)          -43.1074         estimate D2E/DX2                !
 ! D36   D(6,9,13,22)           74.9323         estimate D2E/DX2                !
 ! D37   D(11,9,13,14)          74.6907         estimate D2E/DX2                !
 ! D38   D(11,9,13,15)        -168.5811         estimate D2E/DX2                !
 ! D39   D(11,9,13,22)         -50.5414         estimate D2E/DX2                !
 ! D40   D(12,9,13,14)         -39.6744         estimate D2E/DX2                !
 ! D41   D(12,9,13,15)          77.0538         estimate D2E/DX2                !
 ! D42   D(12,9,13,22)        -164.9065         estimate D2E/DX2                !
 ! D43   D(9,13,14,16)         -60.1276         estimate D2E/DX2                !
 ! D44   D(9,13,14,17)          55.0699         estimate D2E/DX2                !
 ! D45   D(9,13,14,18)         176.9591         estimate D2E/DX2                !
 ! D46   D(15,13,14,16)       -177.1025         estimate D2E/DX2                !
 ! D47   D(15,13,14,17)        -61.905          estimate D2E/DX2                !
 ! D48   D(15,13,14,18)         59.9842         estimate D2E/DX2                !
 ! D49   D(22,13,14,16)         65.5322         estimate D2E/DX2                !
 ! D50   D(22,13,14,17)       -179.2704         estimate D2E/DX2                !
 ! D51   D(22,13,14,18)        -57.3811         estimate D2E/DX2                !
 ! D52   D(9,13,22,23)        -114.4914         estimate D2E/DX2                !
 ! D53   D(9,13,22,24)          62.1474         estimate D2E/DX2                !
 ! D54   D(14,13,22,23)        121.0313         estimate D2E/DX2                !
 ! D55   D(14,13,22,24)        -62.33           estimate D2E/DX2                !
 ! D56   D(15,13,22,23)          3.725          estimate D2E/DX2                !
 ! D57   D(15,13,22,24)       -179.6363         estimate D2E/DX2                !
 ! D58   D(13,14,18,19)       -177.4217         estimate D2E/DX2                !
 ! D59   D(13,14,18,20)        -57.5399         estimate D2E/DX2                !
 ! D60   D(13,14,18,21)         62.2596         estimate D2E/DX2                !
 ! D61   D(16,14,18,19)         59.9572         estimate D2E/DX2                !
 ! D62   D(16,14,18,20)        179.8391         estimate D2E/DX2                !
 ! D63   D(16,14,18,21)        -60.3614         estimate D2E/DX2                !
 ! D64   D(17,14,18,19)        -56.2018         estimate D2E/DX2                !
 ! D65   D(17,14,18,20)         63.6801         estimate D2E/DX2                !
 ! D66   D(17,14,18,21)       -176.5204         estimate D2E/DX2                !
 ! D67   D(13,22,23,25)        173.5842         estimate D2E/DX2                !
 ! D68   D(13,22,23,26)         -2.7981         estimate D2E/DX2                !
 ! D69   D(24,22,23,25)         -3.152          estimate D2E/DX2                !
 ! D70   D(24,22,23,26)       -179.5343         estimate D2E/DX2                !
 ! D71   D(13,22,24,27)       -172.8802         estimate D2E/DX2                !
 ! D72   D(13,22,24,28)          3.0938         estimate D2E/DX2                !
 ! D73   D(23,22,24,27)          3.8484         estimate D2E/DX2                !
 ! D74   D(23,22,24,28)        179.8224         estimate D2E/DX2                !
 ! D75   D(22,23,25,29)          0.3798         estimate D2E/DX2                !
 ! D76   D(22,23,25,30)       -176.1911         estimate D2E/DX2                !
 ! D77   D(26,23,25,29)        176.7585         estimate D2E/DX2                !
 ! D78   D(26,23,25,30)          0.1875         estimate D2E/DX2                !
 ! D79   D(22,24,27,29)         -1.761          estimate D2E/DX2                !
 ! D80   D(22,24,27,31)        173.7228         estimate D2E/DX2                !
 ! D81   D(28,24,27,29)       -177.7733         estimate D2E/DX2                !
 ! D82   D(28,24,27,31)         -2.2895         estimate D2E/DX2                !
 ! D83   D(23,25,29,27)          1.7722         estimate D2E/DX2                !
 ! D84   D(23,25,29,45)       -171.56           estimate D2E/DX2                !
 ! D85   D(30,25,29,27)        178.3471         estimate D2E/DX2                !
 ! D86   D(30,25,29,45)          5.0149         estimate D2E/DX2                !
 ! D87   D(24,27,29,25)         -1.0873         estimate D2E/DX2                !
 ! D88   D(24,27,29,45)        172.2009         estimate D2E/DX2                !
 ! D89   D(31,27,29,25)       -176.6355         estimate D2E/DX2                !
 ! D90   D(31,27,29,45)         -3.3473         estimate D2E/DX2                !
 ! D91   D(25,29,45,46)         18.1377         estimate D2E/DX2                !
 ! D92   D(25,29,45,47)        139.0211         estimate D2E/DX2                !
 ! D93   D(25,29,45,73)       -101.4695         estimate D2E/DX2                !
 ! D94   D(27,29,45,46)       -155.048          estimate D2E/DX2                !
 ! D95   D(27,29,45,47)        -34.1646         estimate D2E/DX2                !
 ! D96   D(27,29,45,73)         85.3447         estimate D2E/DX2                !
 ! D97   D(6,32,33,35)        -177.8704         estimate D2E/DX2                !
 ! D98   D(6,32,33,36)           0.3155         estimate D2E/DX2                !
 ! D99   D(34,32,33,35)          1.675          estimate D2E/DX2                !
 ! D100  D(34,32,33,36)        179.8609         estimate D2E/DX2                !
 ! D101  D(6,32,34,37)         176.7287         estimate D2E/DX2                !
 ! D102  D(6,32,34,38)           0.2305         estimate D2E/DX2                !
 ! D103  D(33,32,34,37)         -2.8154         estimate D2E/DX2                !
 ! D104  D(33,32,34,38)       -179.3137         estimate D2E/DX2                !
 ! D105  D(32,33,35,39)          0.1307         estimate D2E/DX2                !
 ! D106  D(32,33,35,40)        177.7974         estimate D2E/DX2                !
 ! D107  D(36,33,35,39)       -178.0526         estimate D2E/DX2                !
 ! D108  D(36,33,35,40)         -0.3859         estimate D2E/DX2                !
 ! D109  D(32,34,37,39)          2.143          estimate D2E/DX2                !
 ! D110  D(32,34,37,41)       -174.7338         estimate D2E/DX2                !
 ! D111  D(38,34,37,39)        178.6739         estimate D2E/DX2                !
 ! D112  D(38,34,37,41)          1.7972         estimate D2E/DX2                !
 ! D113  D(33,35,39,37)         -0.8529         estimate D2E/DX2                !
 ! D114  D(33,35,39,42)        174.7257         estimate D2E/DX2                !
 ! D115  D(40,35,39,37)       -178.5129         estimate D2E/DX2                !
 ! D116  D(40,35,39,42)         -2.9343         estimate D2E/DX2                !
 ! D117  D(34,37,39,35)         -0.2656         estimate D2E/DX2                !
 ! D118  D(34,37,39,42)       -175.9572         estimate D2E/DX2                !
 ! D119  D(41,37,39,35)        176.6937         estimate D2E/DX2                !
 ! D120  D(41,37,39,42)          1.0022         estimate D2E/DX2                !
 ! D121  D(35,39,42,43)       -148.1631         estimate D2E/DX2                !
 ! D122  D(35,39,42,44)        -25.7111         estimate D2E/DX2                !
 ! D123  D(35,39,42,72)         94.9361         estimate D2E/DX2                !
 ! D124  D(37,39,42,43)         27.3888         estimate D2E/DX2                !
 ! D125  D(37,39,42,44)        149.8407         estimate D2E/DX2                !
 ! D126  D(37,39,42,72)        -89.5121         estimate D2E/DX2                !
 ! D127  D(39,42,72,48)        179.0382         estimate D2E/DX2                !
 ! D128  D(39,42,72,52)         61.4202         estimate D2E/DX2                !
 ! D129  D(39,42,72,56)        -60.9245         estimate D2E/DX2                !
 ! D130  D(43,42,72,48)         58.4532         estimate D2E/DX2                !
 ! D131  D(43,42,72,52)        -59.1648         estimate D2E/DX2                !
 ! D132  D(43,42,72,56)        178.4905         estimate D2E/DX2                !
 ! D133  D(44,42,72,48)        -56.8817         estimate D2E/DX2                !
 ! D134  D(44,42,72,52)       -174.4997         estimate D2E/DX2                !
 ! D135  D(44,42,72,56)         63.1557         estimate D2E/DX2                !
 ! D136  D(29,45,73,60)        174.7791         estimate D2E/DX2                !
 ! D137  D(29,45,73,64)        -66.4353         estimate D2E/DX2                !
 ! D138  D(29,45,73,68)         55.5314         estimate D2E/DX2                !
 ! D139  D(46,45,73,60)         51.907          estimate D2E/DX2                !
 ! D140  D(46,45,73,64)        170.6925         estimate D2E/DX2                !
 ! D141  D(46,45,73,68)        -67.3407         estimate D2E/DX2                !
 ! D142  D(47,45,73,60)        -63.203          estimate D2E/DX2                !
 ! D143  D(47,45,73,64)         55.5825         estimate D2E/DX2                !
 ! D144  D(47,45,73,68)        177.5493         estimate D2E/DX2                !
 ! D145  D(49,48,50,77)       -179.2438         estimate D2E/DX2                !
 ! D146  D(51,48,50,77)        -56.0263         estimate D2E/DX2                !
 ! D147  D(72,48,50,77)         61.5616         estimate D2E/DX2                !
 ! D148  D(49,48,72,42)       -179.3087         estimate D2E/DX2                !
 ! D149  D(49,48,72,52)        -60.3444         estimate D2E/DX2                !
 ! D150  D(49,48,72,56)         59.9853         estimate D2E/DX2                !
 ! D151  D(50,48,72,42)        -57.452          estimate D2E/DX2                !
 ! D152  D(50,48,72,52)         61.5123         estimate D2E/DX2                !
 ! D153  D(50,48,72,56)       -178.158          estimate D2E/DX2                !
 ! D154  D(51,48,72,42)         60.9364         estimate D2E/DX2                !
 ! D155  D(51,48,72,52)        179.9007         estimate D2E/DX2                !
 ! D156  D(51,48,72,56)        -59.7696         estimate D2E/DX2                !
 ! D157  D(48,50,77,74)        -94.9167         estimate D2E/DX2                !
 ! D158  D(48,50,77,80)         35.3025         estimate D2E/DX2                !
 ! D159  D(53,52,54,76)         75.5534         estimate D2E/DX2                !
 ! D160  D(55,52,54,76)       -161.0863         estimate D2E/DX2                !
 ! D161  D(72,52,54,76)        -42.6922         estimate D2E/DX2                !
 ! D162  D(53,52,72,42)        -68.3943         estimate D2E/DX2                !
 ! D163  D(53,52,72,48)        174.8533         estimate D2E/DX2                !
 ! D164  D(53,52,72,56)         54.5438         estimate D2E/DX2                !
 ! D165  D(54,52,72,42)         51.0909         estimate D2E/DX2                !
 ! D166  D(54,52,72,48)        -65.6615         estimate D2E/DX2                !
 ! D167  D(54,52,72,56)        174.0289         estimate D2E/DX2                !
 ! D168  D(55,52,72,42)        172.395          estimate D2E/DX2                !
 ! D169  D(55,52,72,48)         55.6426         estimate D2E/DX2                !
 ! D170  D(55,52,72,56)        -64.667          estimate D2E/DX2                !
 ! D171  D(52,54,76,74)         99.9314         estimate D2E/DX2                !
 ! D172  D(57,56,72,42)        -58.4485         estimate D2E/DX2                !
 ! D173  D(57,56,72,48)         59.7321         estimate D2E/DX2                !
 ! D174  D(57,56,72,52)        179.0124         estimate D2E/DX2                !
 ! D175  D(58,56,72,42)         61.6796         estimate D2E/DX2                !
 ! D176  D(58,56,72,48)        179.8602         estimate D2E/DX2                !
 ! D177  D(58,56,72,52)        -60.8595         estimate D2E/DX2                !
 ! D178  D(59,56,72,42)       -178.1706         estimate D2E/DX2                !
 ! D179  D(59,56,72,48)        -59.99           estimate D2E/DX2                !
 ! D180  D(59,56,72,52)         59.2903         estimate D2E/DX2                !
 ! D181  D(61,60,63,75)       -155.9293         estimate D2E/DX2                !
 ! D182  D(62,60,63,75)         80.3221         estimate D2E/DX2                !
 ! D183  D(73,60,63,75)        -36.924          estimate D2E/DX2                !
 ! D184  D(61,60,73,45)        178.5984         estimate D2E/DX2                !
 ! D185  D(61,60,73,64)         58.9654         estimate D2E/DX2                !
 ! D186  D(61,60,73,68)        -61.4183         estimate D2E/DX2                !
 ! D187  D(62,60,73,45)        -61.3502         estimate D2E/DX2                !
 ! D188  D(62,60,73,64)        179.0168         estimate D2E/DX2                !
 ! D189  D(62,60,73,68)         58.6331         estimate D2E/DX2                !
 ! D190  D(63,60,73,45)         56.8117         estimate D2E/DX2                !
 ! D191  D(63,60,73,64)        -62.8214         estimate D2E/DX2                !
 ! D192  D(63,60,73,68)        176.795          estimate D2E/DX2                !
 ! D193  D(60,63,75,74)        -48.6646         estimate D2E/DX2                !
 ! D194  D(60,63,75,82)         65.2661         estimate D2E/DX2                !
 ! D195  D(65,64,73,45)        -51.694          estimate D2E/DX2                !
 ! D196  D(65,64,73,60)         66.1882         estimate D2E/DX2                !
 ! D197  D(65,64,73,68)       -173.8951         estimate D2E/DX2                !
 ! D198  D(66,64,73,45)         67.7279         estimate D2E/DX2                !
 ! D199  D(66,64,73,60)       -174.39           estimate D2E/DX2                !
 ! D200  D(66,64,73,68)        -54.4733         estimate D2E/DX2                !
 ! D201  D(67,64,73,45)       -172.6198         estimate D2E/DX2                !
 ! D202  D(67,64,73,60)        -54.7377         estimate D2E/DX2                !
 ! D203  D(67,64,73,68)         65.179          estimate D2E/DX2                !
 ! D204  D(69,68,73,45)        -62.1014         estimate D2E/DX2                !
 ! D205  D(69,68,73,60)        179.7402         estimate D2E/DX2                !
 ! D206  D(69,68,73,64)         60.0143         estimate D2E/DX2                !
 ! D207  D(70,68,73,45)         57.9021         estimate D2E/DX2                !
 ! D208  D(70,68,73,60)        -60.2563         estimate D2E/DX2                !
 ! D209  D(70,68,73,64)       -179.9822         estimate D2E/DX2                !
 ! D210  D(71,68,73,45)        177.454          estimate D2E/DX2                !
 ! D211  D(71,68,73,60)         59.2956         estimate D2E/DX2                !
 ! D212  D(71,68,73,64)        -60.4303         estimate D2E/DX2                !
 ! D213  D(76,74,75,63)        127.3182         estimate D2E/DX2                !
 ! D214  D(76,74,75,82)         14.1028         estimate D2E/DX2                !
 ! D215  D(77,74,75,63)        -48.9715         estimate D2E/DX2                !
 ! D216  D(77,74,75,82)       -162.1868         estimate D2E/DX2                !
 ! D217  D(75,74,76,54)        151.8952         estimate D2E/DX2                !
 ! D218  D(77,74,76,54)        -31.7993         estimate D2E/DX2                !
 ! D219  D(75,74,77,50)       -162.4495         estimate D2E/DX2                !
 ! D220  D(75,74,77,80)         91.0084         estimate D2E/DX2                !
 ! D221  D(76,74,77,50)         21.2118         estimate D2E/DX2                !
 ! D222  D(76,74,77,80)        -85.3303         estimate D2E/DX2                !
 ! D223  D(63,75,82,81)        -72.8769         estimate D2E/DX2                !
 ! D224  D(74,75,82,81)         38.7653         estimate D2E/DX2                !
 ! D225  D(50,77,78,79)         91.3885         estimate D2E/DX2                !
 ! D226  D(74,77,78,79)       -147.1588         estimate D2E/DX2                !
 ! D227  D(83,81,82,75)        -58.4902         estimate D2E/DX2                !
 --------------------------------------------------------------------------------
 Trust Radius=3.00D-01 FncErr=1.00D-07 GrdErr=1.00D-06 EigMax=2.50D+02 EigMin=1.00D-04
 Number of steps in this run=    479 maximum allowed number of steps=    498.
 GradGradGradGradGradGradGradGradGradGradGradGradGradGradGradGradGradGrad

 Leave Link  103 at Sat Mar 16 16:07:02 2024, MaxMem=  1744830464 cpu:               1.0 elap:               0.1
 (Enter /packages/apps/gaussian/g16/g16/l202.exe)
 Stoichiometry    C28H48N2O5
 Framework group  C1[X(C28H48N2O5)]
 Deg. of freedom   243
 Full point group                 C1      NOp   1
 Largest Abelian subgroup         C1      NOp   1
 Largest concise Abelian subgroup C1      NOp   1
                         Standard orientation:                         
 ---------------------------------------------------------------------
 Center     Atomic      Atomic             Coordinates (Angstroms)
 Number     Number       Type             X           Y           Z
 ---------------------------------------------------------------------
      1          6           0       -4.709793    3.633279    0.784612
      2          6           0       -4.802351    2.173834    1.212846
      3          1           0       -5.185532    4.285155    1.517204
      4          1           0       -3.671939    3.949407    0.676918
      5          1           0       -5.206079    3.790953   -0.175275
      6          6           0       -4.203039    1.186488    0.196385
      7          1           0       -4.297983    2.039637    2.173900
      8          1           0       -5.849721    1.907807    1.375298
      9          6           0       -4.482895   -0.257222    0.649711
     10          1           0       -4.729507    1.334815   -0.752594
     11          1           0       -4.015906   -0.436284    1.622228
     12          1           0       -5.559929   -0.330620    0.821417
     13          6           0       -4.085090   -1.384262   -0.322163
     14          6           0       -4.852069   -2.672859    0.014793
     15          1           0       -4.389718   -1.078236   -1.328699
     16          1           0       -4.610051   -2.979170    1.036323
     17          1           0       -5.920987   -2.446729    0.010188
     18          6           0       -4.571150   -3.820741   -0.947236
     19          1           0       -5.169515   -4.696530   -0.696333
     20          1           0       -4.809493   -3.535366   -1.973967
     21          1           0       -3.520702   -4.111480   -0.920161
     22          6           0       -2.587747   -1.617374   -0.353778
     23          6           0       -1.852276   -1.361488   -1.503192
     24          6           0       -1.900175   -2.027247    0.786909
     25          6           0       -0.469310   -1.446744   -1.497758
     26          1           0       -2.363228   -1.034523   -2.399832
     27          6           0       -0.518463   -2.101208    0.804524
     28          1           0       -2.445798   -2.231705    1.699953
     29          6           0        0.215647   -1.798781   -0.341282
     30          1           0        0.087526   -1.182771   -2.388943
     31          1           0        0.009359   -2.323079    1.725347
     32          6           0       -2.739586    1.490779   -0.053215
     33          6           0       -2.318656    2.020466   -1.267333
     34          6           0       -1.775979    1.239948    0.920819
     35          6           0       -0.974121    2.259025   -1.514286
     36          1           0       -3.048599    2.222273   -2.041794
     37          6           0       -0.432066    1.452746    0.675362
     38          1           0       -2.071492    0.817291    1.872237
     39          6           0       -0.014995    1.970066   -0.550693
     40          1           0       -0.668116    2.638999   -2.482198
     41          1           0        0.322546    1.177389    1.404718
     42          6           0        1.451877    2.107125   -0.829098
     43          1           0        2.016498    1.368555   -0.260197
     44          1           0        1.678228    2.003101   -1.888500
     45          6           0        1.710798   -1.705118   -0.292932
     46          1           0        2.089148   -1.065210   -1.087277
     47          1           0        2.029856   -1.305593    0.664743
     48          6           0        3.519807    3.372995   -0.740060
     49          1           0        3.980857    4.309778   -0.434289
     50          1           0        3.946027    2.505204   -0.217616
     51          1           0        3.617130    3.234260   -1.814482
     52          6           0        1.928742    3.625597    1.071867
     53          1           0        0.877632    3.764589    1.309149
     54          1           0        2.315166    2.717564    1.552599
     55          1           0        2.493355    4.513360    1.347928
     56          6           0        1.428694    4.566850   -1.120990
     57          1           0        1.551846    4.421777   -2.191851
     58          1           0        0.371936    4.601488   -0.871937
     59          1           0        1.914329    5.490481   -0.815178
     60          6           0        3.924728   -2.703401   -0.508363
     61          1           0        4.465624   -3.643390   -0.599140
     62          1           0        4.096164   -2.067846   -1.373067
     63          1           0        4.194307   -2.154298    0.403626
     64          6           0        2.197466   -3.911877    0.709002
     65          1           0        2.397749   -3.356734    1.622557
     66          1           0        1.156462   -4.221414    0.689980
     67          1           0        2.845400   -4.781186    0.626253
     68          6           0        2.057056   -3.694207   -1.712407
     69          1           0        0.997076   -3.928890   -1.674146
     70          1           0        2.258988   -3.022538   -2.543211
     71          1           0        2.640352   -4.605429   -1.821290
     72          7           0        2.063644    3.437311   -0.405381
     73          7           0        2.459090   -3.020527   -0.455149
     74          6           0        3.592329    0.174219    1.323456
     75          8           0        3.990436   -0.909407    1.875785
     76          8           0        2.533638    0.773057    1.740384
     77          8           0        4.219912    0.638312    0.286239
     78          8           0        3.696723    0.198570   -2.207494
     79          1           0        4.542046    0.209864   -2.653522
     80          1           0        3.917397    0.339498   -1.234492
     81          8           0        1.862460   -1.738044    3.174768
     82          1           0        2.756740   -1.479080    2.812348
     83          1           0        1.455778   -0.867867    3.168309
 ---------------------------------------------------------------------
 Rotational constants (GHZ):           0.1403292           0.0968031           0.0692513
 Leave Link  202 at Sat Mar 16 16:07:02 2024, MaxMem=  1744830464 cpu:               1.2 elap:               0.1
 (Enter /packages/apps/gaussian/g16/g16/l301.exe)
 Standard basis: 6-311+G(2d,2p) (5D, 7F)
 Ernie: Thresh=  0.10000D-02 Tol=  0.10000D-05 Strict=F.
 There are  1447 symmetry adapted cartesian basis functions of A   symmetry.
 There are  1377 symmetry adapted basis functions of A   symmetry.
  1377 basis functions,  1998 primitive gaussians,  1447 cartesian basis functions
   135 alpha electrons      135 beta electrons
       nuclear repulsion energy      4369.5242266387 Hartrees.
 IExCor= 4639 DFT=T Ex+Corr=wB97XD ExCW=0 ScaHFX=  1.000000
 ScaDFX=  1.000000  1.000000  1.000000  1.000000 ScalE2=  1.000000  1.000000
 IRadAn=      5 IRanWt=     -1 IRanGd=            0 ICorTp=0 IEmpDi=121
 HFx  wShort=  0.000000 wLong=  0.200000 cFull=  0.222036 cShort=  0.000000 cLong=  0.777964
 DFx  wShort=  0.000000 wLong=  0.200000 cFull=  0.000000 cShort=  0.000000 cLong=  1.000000
 NAtoms=   83 NActive=   83 NUniq=   83 SFac= 1.00D+00 NAtFMM=   60 NAOKFM=T Big=T
 Integral buffers will be    131072 words long.
 Raffenetti 2 integral format.
 Two-electron integral symmetry is turned on.
 R6Disp:  Grimme-D2 Dispersion energy=       -0.1011155971 Hartrees.
 Nuclear repulsion after empirical dispersion term =     4369.4231110416 Hartrees.
 Leave Link  301 at Sat Mar 16 16:07:03 2024, MaxMem=  1744830464 cpu:               0.6 elap:               0.1
 (Enter /packages/apps/gaussian/g16/g16/l302.exe)
 NPDir=0 NMtPBC=     1 NCelOv=     1 NCel=       1 NClECP=     1 NCelD=      1
         NCelK=      1 NCelE2=     1 NClLst=     1 CellRange=     0.0.
 One-electron integrals computed using PRISM.
 One-electron integral symmetry used in STVInt
 NBasis=  1377 RedAO= T EigKep=  1.22D-06  NBF=  1377
 NBsUse=  1367 1.00D-06 EigRej=  9.10D-07 NBFU=  1367
 Precomputing XC quadrature grid using
 IXCGrd= 4 IRadAn=           5 IRanWt=          -1 IRanGd=           0 AccXCQ= 0.00D+00.
 Generated NRdTot=       0 NPtTot=           0 NUsed=           0 NTot=          32
 NSgBfM=  1382  1382  1382  1382  1382 MxSgAt=    83 MxSgA2=    83.
 Leave Link  302 at Sat Mar 16 16:07:05 2024, MaxMem=  1744830464 cpu:              47.7 elap:               2.5
 (Enter /packages/apps/gaussian/g16/g16/l303.exe)
 DipDrv:  MaxL=1.
 Leave Link  303 at Sat Mar 16 16:07:06 2024, MaxMem=  1744830464 cpu:               5.7 elap:               0.4
 (Enter /packages/apps/gaussian/g16/g16/l401.exe)
 ExpMin= 4.38D-02 ExpMax= 8.59D+03 ExpMxC= 1.30D+03 IAcc=3 IRadAn=         5 AccDes= 0.00D+00
 Harris functional with IExCor= 4639 and IRadAn=       5 diagonalized for initial guess.
 HarFok:  IExCor= 4639 AccDes= 0.00D+00 IRadAn=         5 IDoV= 1 UseB2=F ITyADJ=14
 ICtDFT=  3500011 ScaDFX=  1.000000  1.000000  1.000000  1.000000
 FoFCou: FMM=F IPFlag=           0 FMFlag=      100000 FMFlg1=        2001
         NFxFlg=           0 DoJE=T BraDBF=F KetDBF=T FulRan=T
         wScrn=  0.000000 ICntrl=       500 IOpCl=  0 I1Cent=   200000004 NGrid=           0
         NMat0=    1 NMatS0=      1 NMatT0=    0 NMatD0=    1 NMtDS0=    0 NMtDT0=    0
 Petite list used in FoFCou.
 Harris En= -1511.36003910497    
 JPrj=0 DoOrth=F DoCkMO=F.
 Leave Link  401 at Sat Mar 16 16:07:14 2024, MaxMem=  1744830464 cpu:             165.9 elap:               8.4
 (Enter /packages/apps/gaussian/g16/g16/l502.exe)
 Integral symmetry usage will be decided dynamically.
 Closed shell SCF:
 Using DIIS extrapolation, IDIIS=  1040.
 NGot=  1744830464 LenX=  1740600617 LenY=  1738505361
 Requested convergence on RMS density matrix=1.00D-08 within 128 cycles.
 Requested convergence on MAX density matrix=1.00D-06.
 Requested convergence on             energy=1.00D-06.
 No special actions if energy rises.
 Fock matrices will be formed incrementally for  20 cycles.

 Cycle   1  Pass 1  IDiag  1:
 FoFJK:  IHMeth= 1 ICntrl=       0 DoSepK=T KAlg= 0 I1Cent=           0 FoldK=F
 IRaf=         1 NMat=       1 IRICut=       1 DoRegI=T DoRafI=F ISym2E= 0 IDoP0=0 IntGTp=1.
 FoFCou: FMM=T IPFlag=           0 FMFlag=      100000 FMFlg1=        2001
         NFxFlg=           0 DoJE=T BraDBF=F KetDBF=F FulRan=T
         wScrn=  0.000000 ICntrl=       500 IOpCl=  0 I1Cent=           0 NGrid=           0
         NMat0=    1 NMatS0=      1 NMatT0=    0 NMatD0=    1 NMtDS0=    0 NMtDT0=    0
 Symmetry not used in FoFCou.
 FMM levels:  10  Number of levels for PrismC:   9
 E= -1580.97958062440    
 DIIS: error= 4.16D-02 at cycle   1 NSaved=   1.
 NSaved= 1 IEnMin= 1 EnMin= -1580.97958062440     IErMin= 1 ErrMin= 4.16D-02
 ErrMax= 4.16D-02  0.00D+00 EMaxC= 1.00D-01 BMatC= 3.43D+00 BMatP= 3.43D+00
 IDIUse=3 WtCom= 5.84D-01 WtEn= 4.16D-01
 Coeff-Com:  0.100D+01
 Coeff-En:   0.100D+01
 Coeff:      0.100D+01
 Gap=     0.294 Goal=   None    Shift=    0.000
 GapD=    0.294 DampG=1.000 DampE=0.500 DampFc=0.5000 IDamp=-1.
 Damping current iteration by 5.00D-01
 RMSDP=3.83D-03 MaxDP=6.39D-01              OVMax= 1.26D-01

 Cycle   2  Pass 1  IDiag  1:
 RMSU=  1.46D-03    CP:  9.03D-01
 E= -1581.24101014627     Delta-E=       -0.261429521867 Rises=F Damp=T
 DIIS: error= 1.83D-02 at cycle   2 NSaved=   2.
 NSaved= 2 IEnMin= 2 EnMin= -1581.24101014627     IErMin= 2 ErrMin= 1.83D-02
 ErrMax= 1.83D-02  0.00D+00 EMaxC= 1.00D-01 BMatC= 7.11D-01 BMatP= 3.43D+00
 IDIUse=3 WtCom= 8.17D-01 WtEn= 1.83D-01
 Coeff-Com: -0.579D+00 0.158D+01
 Coeff-En:   0.000D+00 0.100D+01
 Coeff:     -0.473D+00 0.147D+01
 Gap=     0.276 Goal=   None    Shift=    0.000
 RMSDP=2.40D-03 MaxDP=4.17D-01 DE=-2.61D-01 OVMax= 1.07D-01

 Cycle   3  Pass 1  IDiag  1:
 RMSU=  1.34D-03    CP:  7.61D-01  1.57D+00
 E= -1581.38192457305     Delta-E=       -0.140914426783 Rises=F Damp=F
 DIIS: error= 8.47D-03 at cycle   3 NSaved=   3.
 NSaved= 3 IEnMin= 3 EnMin= -1581.38192457305     IErMin= 3 ErrMin= 8.47D-03
 ErrMax= 8.47D-03  0.00D+00 EMaxC= 1.00D-01 BMatC= 1.93D-01 BMatP= 7.11D-01
 IDIUse=3 WtCom= 9.15D-01 WtEn= 8.47D-02
 Coeff-Com: -0.359D+00 0.767D+00 0.592D+00
 Coeff-En:   0.000D+00 0.000D+00 0.100D+01
 Coeff:     -0.329D+00 0.702D+00 0.626D+00
 Gap=     0.267 Goal=   None    Shift=    0.000
 RMSDP=6.77D-04 MaxDP=9.85D-02 DE=-1.41D-01 OVMax= 4.97D-02

 Cycle   4  Pass 1  IDiag  1:
 RMSU=  3.73D-04    CP:  7.76D-01  1.78D+00  6.84D-01
 E= -1581.53289455576     Delta-E=       -0.150969982709 Rises=F Damp=F
 DIIS: error= 1.20D-03 at cycle   4 NSaved=   4.
 NSaved= 4 IEnMin= 4 EnMin= -1581.53289455576     IErMin= 4 ErrMin= 1.20D-03
 ErrMax= 1.20D-03  0.00D+00 EMaxC= 1.00D-01 BMatC= 4.34D-03 BMatP= 1.93D-01
 IDIUse=3 WtCom= 9.88D-01 WtEn= 1.20D-02
 Coeff-Com: -0.104D+00 0.222D+00 0.252D+00 0.630D+00
 Coeff-En:   0.000D+00 0.000D+00 0.000D+00 0.100D+01
 Coeff:     -0.103D+00 0.219D+00 0.249D+00 0.635D+00
 Gap=     0.263 Goal=   None    Shift=    0.000
 RMSDP=1.75D-04 MaxDP=3.17D-02 DE=-1.51D-01 OVMax= 9.49D-03

 Cycle   5  Pass 1  IDiag  1:
 RMSU=  1.26D-04    CP:  7.71D-01  1.74D+00  7.36D-01  9.05D-01
 E= -1581.53633967857     Delta-E=       -0.003445122812 Rises=F Damp=F
 DIIS: error= 1.71D-04 at cycle   5 NSaved=   5.
 NSaved= 5 IEnMin= 5 EnMin= -1581.53633967857     IErMin= 5 ErrMin= 1.71D-04
 ErrMax= 1.71D-04  0.00D+00 EMaxC= 1.00D-01 BMatC= 1.54D-04 BMatP= 4.34D-03
 IDIUse=3 WtCom= 9.98D-01 WtEn= 1.71D-03
 Coeff-Com:  0.130D-01-0.278D-01 0.976D-02 0.229D+00 0.776D+00
 Coeff-En:   0.000D+00 0.000D+00 0.000D+00 0.000D+00 0.100D+01
 Coeff:      0.129D-01-0.278D-01 0.974D-02 0.229D+00 0.776D+00
 Gap=     0.262 Goal=   None    Shift=    0.000
 RMSDP=4.93D-05 MaxDP=4.44D-03 DE=-3.45D-03 OVMax= 3.85D-03

 Cycle   6  Pass 1  IDiag  1:
 RMSU=  3.33D-05    CP:  7.72D-01  1.75D+00  7.43D-01  9.92D-01  9.97D-01
 E= -1581.53646616070     Delta-E=       -0.000126482133 Rises=F Damp=F
 DIIS: error= 9.13D-05 at cycle   6 NSaved=   6.
 NSaved= 6 IEnMin= 6 EnMin= -1581.53646616070     IErMin= 6 ErrMin= 9.13D-05
 ErrMax= 9.13D-05  0.00D+00 EMaxC= 1.00D-01 BMatC= 3.57D-05 BMatP= 1.54D-04
 IDIUse=1 WtCom= 1.00D+00 WtEn= 0.00D+00
 Coeff-Com:  0.161D-01-0.344D-01-0.177D-01 0.574D-01 0.404D+00 0.574D+00
 Coeff:      0.161D-01-0.344D-01-0.177D-01 0.574D-01 0.404D+00 0.574D+00
 Gap=     0.262 Goal=   None    Shift=    0.000
 RMSDP=1.85D-05 MaxDP=3.52D-03 DE=-1.26D-04 OVMax= 1.42D-03

 Cycle   7  Pass 1  IDiag  1:
 RMSU=  1.24D-05    CP:  7.72D-01  1.75D+00  7.46D-01  1.02D+00  1.06D+00
                    CP:  9.72D-01
 E= -1581.53650201314     Delta-E=       -0.000035852438 Rises=F Damp=F
 DIIS: error= 1.29D-05 at cycle   7 NSaved=   7.
 NSaved= 7 IEnMin= 7 EnMin= -1581.53650201314     IErMin= 7 ErrMin= 1.29D-05
 ErrMax= 1.29D-05  0.00D+00 EMaxC= 1.00D-01 BMatC= 9.13D-07 BMatP= 3.57D-05
 IDIUse=1 WtCom= 1.00D+00 WtEn= 0.00D+00
 Coeff-Com:  0.283D-02-0.601D-02-0.495D-02-0.518D-02 0.292D-01 0.145D+00
 Coeff-Com:  0.839D+00
 Coeff:      0.283D-02-0.601D-02-0.495D-02-0.518D-02 0.292D-01 0.145D+00
 Coeff:      0.839D+00
 Gap=     0.262 Goal=   None    Shift=    0.000
 RMSDP=6.89D-06 MaxDP=7.23D-04 DE=-3.59D-05 OVMax= 2.83D-04

 Cycle   8  Pass 1  IDiag  1:
 RMSU=  3.63D-06    CP:  7.72D-01  1.75D+00  7.46D-01  1.03D+00  1.08D+00
                    CP:  1.04D+00  1.06D+00
 E= -1581.53650312690     Delta-E=       -0.000001113763 Rises=F Damp=F
 DIIS: error= 4.74D-06 at cycle   8 NSaved=   8.
 NSaved= 8 IEnMin= 8 EnMin= -1581.53650312690     IErMin= 8 ErrMin= 4.74D-06
 ErrMax= 4.74D-06  0.00D+00 EMaxC= 1.00D-01 BMatC= 9.80D-08 BMatP= 9.13D-07
 IDIUse=1 WtCom= 1.00D+00 WtEn= 0.00D+00
 Coeff-Com: -0.123D-03 0.296D-03-0.422D-03-0.569D-02-0.189D-01 0.647D-02
 Coeff-Com:  0.270D+00 0.749D+00
 Coeff:     -0.123D-03 0.296D-03-0.422D-03-0.569D-02-0.189D-01 0.647D-02
 Coeff:      0.270D+00 0.749D+00
 Gap=     0.262 Goal=   None    Shift=    0.000
 RMSDP=2.07D-06 MaxDP=3.12D-04 DE=-1.11D-06 OVMax= 6.45D-05

 Cycle   9  Pass 1  IDiag  1:
 RMSU=  1.18D-06    CP:  7.72D-01  1.75D+00  7.47D-01  1.03D+00  1.09D+00
                    CP:  1.06D+00  1.13D+00  1.13D+00
 E= -1581.53650323677     Delta-E=       -0.000000109862 Rises=F Damp=F
 DIIS: error= 1.97D-06 at cycle   9 NSaved=   9.
 NSaved= 9 IEnMin= 9 EnMin= -1581.53650323677     IErMin= 9 ErrMin= 1.97D-06
 ErrMax= 1.97D-06  0.00D+00 EMaxC= 1.00D-01 BMatC= 1.38D-08 BMatP= 9.80D-08
 IDIUse=1 WtCom= 1.00D+00 WtEn= 0.00D+00
 Coeff-Com: -0.331D-03 0.710D-03 0.347D-03-0.172D-02-0.102D-01-0.115D-01
 Coeff-Com:  0.227D-01 0.282D+00 0.718D+00
 Coeff:     -0.331D-03 0.710D-03 0.347D-03-0.172D-02-0.102D-01-0.115D-01
 Coeff:      0.227D-01 0.282D+00 0.718D+00
 Gap=     0.262 Goal=   None    Shift=    0.000
 RMSDP=7.75D-07 MaxDP=1.04D-04 DE=-1.10D-07 OVMax= 2.73D-05

 Cycle  10  Pass 1  IDiag  1:
 RMSU=  3.22D-07    CP:  7.72D-01  1.75D+00  7.47D-01  1.03D+00  1.09D+00
                    CP:  1.07D+00  1.16D+00  1.24D+00  1.19D+00
 E= -1581.53650325331     Delta-E=       -0.000000016546 Rises=F Damp=F
 DIIS: error= 9.73D-07 at cycle  10 NSaved=  10.
 NSaved=10 IEnMin=10 EnMin= -1581.53650325331     IErMin=10 ErrMin= 9.73D-07
 ErrMax= 9.73D-07  0.00D+00 EMaxC= 1.00D-01 BMatC= 1.93D-09 BMatP= 1.38D-08
 IDIUse=1 WtCom= 1.00D+00 WtEn= 0.00D+00
 Coeff-Com: -0.921D-04 0.193D-03 0.160D-03 0.962D-04-0.114D-02-0.482D-02
 Coeff-Com: -0.283D-01-0.105D-01 0.258D+00 0.787D+00
 Coeff:     -0.921D-04 0.193D-03 0.160D-03 0.962D-04-0.114D-02-0.482D-02
 Coeff:     -0.283D-01-0.105D-01 0.258D+00 0.787D+00
 Gap=     0.262 Goal=   None    Shift=    0.000
 RMSDP=3.76D-07 MaxDP=4.15D-05 DE=-1.65D-08 OVMax= 1.73D-05

 Cycle  11  Pass 1  IDiag  1:
 RMSU=  1.42D-07    CP:  7.72D-01  1.75D+00  7.47D-01  1.03D+00  1.09D+00
                    CP:  1.07D+00  1.17D+00  1.30D+00  1.36D+00  1.11D+00
 E= -1581.53650325613     Delta-E=       -0.000000002815 Rises=F Damp=F
 DIIS: error= 4.55D-07 at cycle  11 NSaved=  11.
 NSaved=11 IEnMin=11 EnMin= -1581.53650325613     IErMin=11 ErrMin= 4.55D-07
 ErrMax= 4.55D-07  0.00D+00 EMaxC= 1.00D-01 BMatC= 3.65D-10 BMatP= 1.93D-09
 IDIUse=1 WtCom= 1.00D+00 WtEn= 0.00D+00
 Coeff-Com:  0.976D-06-0.370D-05 0.248D-04 0.256D-03 0.787D-03-0.662D-03
 Coeff-Com: -0.150D-01-0.425D-01 0.216D-01 0.346D+00 0.690D+00
 Coeff:      0.976D-06-0.370D-05 0.248D-04 0.256D-03 0.787D-03-0.662D-03
 Coeff:     -0.150D-01-0.425D-01 0.216D-01 0.346D+00 0.690D+00
 Gap=     0.262 Goal=   None    Shift=    0.000
 RMSDP=1.30D-07 MaxDP=1.64D-05 DE=-2.81D-09 OVMax= 6.84D-06

 Cycle  12  Pass 1  IDiag  1:
 RMSU=  5.34D-08    CP:  7.72D-01  1.75D+00  7.47D-01  1.03D+00  1.09D+00
                    CP:  1.07D+00  1.17D+00  1.32D+00  1.41D+00  1.27D+00
                    CP:  1.14D+00
 E= -1581.53650325662     Delta-E=       -0.000000000487 Rises=F Damp=F
 DIIS: error= 1.82D-07 at cycle  12 NSaved=  12.
 NSaved=12 IEnMin=12 EnMin= -1581.53650325662     IErMin=12 ErrMin= 1.82D-07
 ErrMax= 1.82D-07  0.00D+00 EMaxC= 1.00D-01 BMatC= 5.85D-11 BMatP= 3.65D-10
 IDIUse=1 WtCom= 1.00D+00 WtEn= 0.00D+00
 Coeff-Com:  0.132D-04-0.283D-04-0.138D-04 0.864D-04 0.476D-03 0.516D-03
 Coeff-Com: -0.691D-03-0.148D-01-0.373D-01-0.550D-02 0.282D+00 0.775D+00
 Coeff:      0.132D-04-0.283D-04-0.138D-04 0.864D-04 0.476D-03 0.516D-03
 Coeff:     -0.691D-03-0.148D-01-0.373D-01-0.550D-02 0.282D+00 0.775D+00
 Gap=     0.262 Goal=   None    Shift=    0.000
 RMSDP=5.22D-08 MaxDP=6.06D-06 DE=-4.87D-10 OVMax= 3.89D-06

 Cycle  13  Pass 1  IDiag  1:
 RMSU=  1.91D-08    CP:  7.72D-01  1.75D+00  7.47D-01  1.03D+00  1.09D+00
                    CP:  1.07D+00  1.17D+00  1.33D+00  1.44D+00  1.32D+00
                    CP:  1.30D+00  1.14D+00
 E= -1581.53650325677     Delta-E=       -0.000000000158 Rises=F Damp=F
 DIIS: error= 5.40D-08 at cycle  13 NSaved=  13.
 NSaved=13 IEnMin=13 EnMin= -1581.53650325677     IErMin=13 ErrMin= 5.40D-08
 ErrMax= 5.40D-08  0.00D+00 EMaxC= 1.00D-01 BMatC= 7.43D-12 BMatP= 5.85D-11
 IDIUse=1 WtCom= 1.00D+00 WtEn= 0.00D+00
 Coeff-Com:  0.347D-05-0.717D-05-0.766D-05-0.166D-04 0.130D-04 0.230D-03
 Coeff-Com:  0.226D-02 0.255D-02-0.153D-01-0.593D-01-0.304D-01 0.241D+00
 Coeff-Com:  0.859D+00
 Coeff:      0.347D-05-0.717D-05-0.766D-05-0.166D-04 0.130D-04 0.230D-03
 Coeff:      0.226D-02 0.255D-02-0.153D-01-0.593D-01-0.304D-01 0.241D+00
 Coeff:      0.859D+00
 Gap=     0.262 Goal=   None    Shift=    0.000
 RMSDP=2.06D-08 MaxDP=2.63D-06 DE=-1.58D-10 OVMax= 2.17D-06

 Cycle  14  Pass 1  IDiag  1:
 RMSU=  7.74D-09    CP:  7.72D-01  1.75D+00  7.47D-01  1.03D+00  1.09D+00
                    CP:  1.07D+00  1.17D+00  1.33D+00  1.44D+00  1.35D+00
                    CP:  1.37D+00  1.30D+00  1.24D+00
 E= -1581.53650325673     Delta-E=        0.000000000047 Rises=F Damp=F
 DIIS: error= 2.07D-08 at cycle  14 NSaved=  14.
 NSaved=14 IEnMin=13 EnMin= -1581.53650325677     IErMin=14 ErrMin= 2.07D-08
 ErrMax= 2.07D-08  0.00D+00 EMaxC= 1.00D-01 BMatC= 1.26D-12 BMatP= 7.43D-12
 IDIUse=1 WtCom= 1.00D+00 WtEn= 0.00D+00
 Coeff-Com: -0.473D-06 0.113D-05-0.846D-06-0.193D-04-0.584D-04 0.133D-04
[...]
 ,0.00052539,-0.00017902,-0.00005553,0.00013275,0.00000359,-0.00000355,
 0.00004973,-0.00009790,0.00038359,-0.00054519,-0.00014071,0.00002515,-
 0.00004630,0.00021232,-0.00012057,-0.00017437,0.00004299,-0.00002039,0
 .00014080,-0.00133430,-0.00039387,-0.00114201,-0.00007711,-0.00000472,
 -0.00008724,-0.00012443,-0.00012983,0.00011950,0.00003809,0.00003249,-
 0.00019001,0.00001053,-0.00006457,0.00013780,-0.00002331,0.00000698,0.
 00000574,-0.00039802,-0.00002153,0.00003554,-0.00014401,0.00003431,0.0
 0005875,0.00020072,0.00006804,-0.00010164,0.00002609,0.00001111,0.0000
 5815,0.00047903,0.00027821,-0.00020332,0.00025162,0.00039088,-0.000110
 31,0.00053090,-0.00027856,0.00037202,-0.00000590,-0.00002396,-0.000004
 27,-0.00052872,-0.00080415,-0.00014197,0.00032007,0.00036267,0.0005269
 2,0.00200836,0.00100627,-0.00184407,0.00010097,0.00051048,-0.00024450,
 -0.00009600,0.00012673,-0.00000438,0.00033697,-0.00138736,0.00042194,-
 0.00003570,-0.00001793,-0.00003047,-0.00000541,0.00025438,-0.00015275,
 -0.00008305,0.00009155,-0.00001741,0.00026107,-0.00073110,0.00012659,-
 0.00000604,0.00002689,-0.00004017,-0.00000460,-0.00012198,0.00006190,0
 .00002124,0.00000425,-0.00001613,-0.00005123,0.00006036,-0.00000384,0.
 00000258,-0.00001299,-0.00000175,0.00082871,-0.00045637,-0.00077591,-0
 .00018223,-0.00027356,-0.00017743,-0.00014634,0.00004713,0.00001654,0.
 00032198,0.00262802,0.00289043,-0.00056564,0.00078239,-0.00040735,0.00
 186475,-0.00178137,-0.00170939,-0.00012255,-0.00025899,-0.00019877,0.0
 0004085,0.00031805,0.00051771,-0.00038147,-0.00012465,0.00020202,-0.00
 012123,-0.00010684,-0.00012775,0.00009702,-0.00000310,0.00012252,0.000
 02723,0.00007906,-0.00000806,-0.00029431,-0.00004005,-0.00001600,-0.00
 020920,0.00008305,0.00022364,0.02214235,-0.02958721,0.00732490,-0.0062
 6746,0.02018872,-0.01803710,-0.01376130,0.00564208,0.00354654,-0.00138
 165,0.00985922,-0.00936217,-0.00056925,-0.00041596,-0.00201553,-0.0000
 5263,-0.00004074,0.00011007,0.00048313,0.00056301,0.00311980,-0.289859
 29,-0.04828778,0.10375717,0.31163323,0.00002510,-0.00000456,-0.0000047
 5,-0.00002990,-0.00001720,-0.00001663,-0.00000680,0.00000251,0.0000087
 5,-0.00001172,-0.00001180,-0.00000122,0.00000104,-0.00000367,0.0000013
 7,0.00002506,0.00003359,0.00001362,0.00001047,0.00000352,0.00000030,-0
 .00002223,0.00000358,0.00000815,-0.00001848,0.00005104,-0.00001800,-0.
 00001235,-0.00000546,0.00000358,0.00000220,0.00000256,0.00001097,-0.00
 000096,-0.00002293,0.00000187,-0.00002371,0.00000491,0.00001828,0.0000
 0541,-0.00001028,-0.00002046,0.00001809,-0.00000335,0.00001230,-0.0000
 0891,-0.00000276,0.00001365,0.00001886,0.00000116,0.00000196,-0.000015
 44,-0.00000527,0.00000219,0.00000130,0.00000066,-0.00000560,0.00000422
 ,-0.00000379,0.00000708,0.00000560,-0.00000517,-0.00000743,-0.00003175
 ,-0.00000185,-0.00002185,0.00004267,-0.00001928,0.00004233,0.00001171,
 -0.00004957,0.00014250,-0.00004703,-0.00004422,-0.00000623,0.00000838,
 0.00000730,0.00002420,-0.00007184,0.00017152,-0.00027069,-0.00004437,0
 .00000801,-0.00000831,0.00007171,-0.00012834,-0.00012519,0.00000531,0.
 00001247,0.00004509,-0.00024735,-0.00025658,-0.00000293,-0.00003942,-0
 .00000639,-0.00001483,-0.00007083,-0.00005599,0.00002913,-0.00001288,0
 .00004048,-0.00015664,-0.00000809,-0.00004990,0.00006493,-0.00002033,0
 .00000511,-0.00000258,-0.00015228,-0.00002001,0.00007850,-0.00007061,0
 .00001844,0.00002941,0.00010067,0.00004237,-0.00006527,0.00001274,0.00
 001488,0.00001880,0.00042833,0.00008012,-0.00004176,0.00011288,0.00021
 120,-0.00015972,0.00028601,-0.00020802,0.00051511,-0.00003880,0.000050
 26,-0.00004841,-0.00047844,0.00000551,-0.00001699,0.00020107,0.0000948
 4,0.00022694,0.00081830,0.00124822,0.00018855,0.00000157,0.00016738,-0
 .00009168,-0.00004349,0.00004844,0.00000255,0.00011084,-0.00058280,0.0
 0025867,-0.00002327,0.00000532,-0.00002803,-0.00005690,0.00026411,-0.0
 0000257,-0.00004508,0.00005491,-0.00002905,0.00021989,-0.00080602,0.00
 011705,-0.00000479,0.00005950,-0.00004359,0.00003102,-0.00009681,0.000
 03058,0.00000581,0.00000445,-0.00002453,-0.00001732,0.00002769,0.00000
 486,-0.00000214,-0.00000191,0.00000639,0.00027043,-0.00059923,-0.00055
 207,-0.00004906,-0.00018109,-0.00017330,-0.00003187,0.00011178,0.00013
 216,0.00044080,0.00178744,0.00110587,0.00001364,0.00022733,-0.00100694
 ,-0.00075302,-0.00265598,-0.00236845,0.00003262,0.00011153,0.00036072,
 0.00003175,0.00012524,0.00031340,-0.00019821,-0.00032611,0.00012846,-0
 .00006890,-0.00000380,-0.00006500,0.00004096,0.00002253,0.00015026,0.0
 0002916,0.00000162,-0.00005651,-0.00013047,-0.00001877,-0.00002617,0.0
 0003259,-0.00005447,0.00003238,-0.00264783,-0.01163608,0.01027486,0.00
 941105,-0.00632751,-0.01053702,-0.00302755,0.00147030,-0.00084781,0.00
 093905,0.00283426,-0.00367810,-0.00025290,-0.00034045,-0.00099078,-0.0
 0001765,0.00002709,0.00005692,0.00024466,0.00025877,0.00155654,-0.0929
 6954,-0.07525246,0.04081203,0.04335970,0.08752063,-0.00001033,-0.00000
 793,-0.00000815,0.00004384,0.00001524,0.00004395,0.00000818,-0.0000018
 4,-0.00000146,0.00000425,0.00000989,0.00000850,-0.00000532,0.00000513,
 -0.00000846,-0.00003167,-0.00002395,-0.00003329,-0.00001653,0.00000237
 ,-0.00001137,0.00001884,-0.00000552,-0.00000882,0.00005675,-0.00004506
 ,0.00004780,0.00000647,0.00000452,-0.00000807,-0.00001386,-0.00000133,
 -0.00001840,0.00001138,0.00001160,-0.00000689,0.00000888,0.00001626,-0
 .00007960,0.00001983,-0.00000371,0.00005382,-0.00002642,0.00000680,-0.
 00002073,0.00000180,0.00000896,-0.00002882,0.00000053,0.00000139,-0.00
 000911,-0.00000099,0.00000590,-0.00001081,0.00000612,0.00000451,0.0000
 0506,-0.00001079,0.00000313,-0.00001247,0.00000383,-0.00000279,0.00001
 452,-0.00001087,0.00005805,0.00017810,0.00003497,0.00000180,-0.0001810
 1,-0.00003891,0.00009821,-0.00048243,0.00026923,0.00015214,-0.00023682
 ,0.00003339,-0.00001124,-0.00002130,-0.00013432,-0.00059984,0.00000652
 ,0.00011854,-0.00003046,0.00002185,-0.00061941,0.00019015,0.00024631,-
 0.00005546,0.00005130,-0.00013340,0.00091323,0.00048361,0.00121645,0.0
 0004389,0.00000523,0.00004909,0.00008923,0.00007517,-0.00007560,-0.000
 02142,-0.00005669,0.00016012,-0.00001019,0.00004040,-0.00010330,0.0000
 2068,0.00000109,0.00000173,0.00023312,-0.00000189,-0.00006705,0.000098
 64,-0.00001122,-0.00003296,-0.00012294,-0.00007862,0.00006490,-0.00001
 843,-0.00000009,-0.00002956,-0.00040318,-0.00008881,0.00014608,-0.0001
 3255,-0.00016507,0.00008606,-0.00033421,0.00026652,-0.00030682,0.00000
 247,0.00001314,0.00000716,-0.00032325,-0.00013155,-0.00026738,0.000022
 01,0.00001845,0.00002817,-0.00213719,-0.00008789,-0.00296417,-0.000041
 84,-0.00024784,0.00013263,0.00005697,-0.00009476,-0.00000327,-0.000160
 30,0.00083313,-0.00025741,0.00001919,0.00002517,0.00001247,0.00005832,
 -0.00029509,0.00012920,0.00006108,-0.00006193,0.00002647,-0.00022697,0
 .00076444,-0.00008672,0.00000331,-0.00006593,0.00004603,-0.00002482,0.
 00008647,-0.00005025,-0.00000900,0.00000184,0.00001198,0.00002999,-0.0
 0002728,0.00000407,-0.00000425,-0.00000406,0.00000113,-0.00020250,0.00
 004457,0.00025614,0.00008755,0.00022402,0.00015895,0.00006834,0.000005
 01,0.00002575,0.00013506,-0.00136929,-0.00166745,0.00011533,-0.0001886
 5,-0.00010336,-0.00093516,-0.00168365,0.00043992,0.00009941,0.00026957
 ,0.00029869,0.00004564,0.00006941,0.00005859,-0.00000114,0.00001981,-0
 .00022687,0.00006555,0.00007182,0.00006597,-0.00003646,-0.00000689,-0.
 00003883,0.00000647,0.00001764,0.00004800,0.00017610,-0.00001554,-0.00
 002012,0.00031525,-0.00008288,-0.00018710,-0.00792976,0.01945833,-0.00
 915252,-0.00776665,-0.01294583,0.00114668,0.00668420,-0.00449783,-0.00
 316253,0.00086751,-0.00409037,0.00638251,0.00025756,0.00012442,0.00144
 557,0.00003300,0.00003299,-0.00007435,-0.00021717,-0.00029020,-0.00203
 586,0.10431665,0.02388067,-0.06607316,-0.09717945,-0.02077488,0.070247
 05,0.00000635,0.00000557,0.00000278,-0.00002963,0.00000599,-0.00002372
 ,0.00000598,-0.00000991,-0.00001070,-0.00000442,0.00000615,0.00000004,
 0.00000240,-0.00000443,0.00001134,-0.00000328,0.00001617,0.00000830,0.
 00000054,0.00000522,0.00002066,0.00000606,0.00000042,0.00000611,-0.000
 02157,0.00002600,-0.00006265,0.00001002,-0.00000800,0.00001861,-0.0000
 1433,-0.00000580,0.00003129,0.00002337,-0.00000893,0.00000958,-0.00003
 233,-0.00002313,0.00002263,-0.00000818,-0.00000778,-0.00002654,0.00002
 188,-0.00000225,0.00002543,-0.00000977,-0.00000788,0.00001610,0.000016
 13,0.00000282,0.00000693,0.00000170,0.00000217,-0.00000200,0.00001061,
 0.00001084,-0.00000310,-0.00000119,-0.00000303,0.00001057,-0.00000151,
 -0.00001598,-0.00000610,-0.00009746,-0.00000328,-0.00007491,-0.0000170
 2,-0.00000507,0.00014064,-0.00000264,0.00007813,0.00016638,-0.00004929
 ,-0.00008906,0.00010888,-0.00000306,-0.00000589,0.00002110,-0.00048224
 ,0.00048042,-0.00037255,-0.00011561,-0.00005052,-0.00001557,0.00035168
 ,0.00005070,-0.00002749,0.00001890,-0.00003795,0.00007048,0.00008988,-
 0.00120310,-0.00051671,-0.00014246,-0.00001967,-0.00002104,-0.00004087
 ,-0.00006126,0.00008569,0.00015766,0.00006079,-0.00017504,0.00001109,-
 0.00005290,0.00012181,-0.00001035,-0.00000109,0.00001927,-0.00042654,-
 0.00006278,-0.00000707,-0.00020736,0.00003610,0.00002297,0.00021989,0.
 00002432,-0.00004868,0.00001865,-0.00000032,0.00004845,0.00051713,0.00
 029990,-0.00019360,0.00015905,0.00018972,-0.00014178,0.00019648,-0.000
 17144,0.00038478,-0.00004324,0.00001563,-0.00002522,0.00033665,-0.0001
 7564,-0.00004728,-0.00001376,0.00005135,0.00002960,0.00029582,0.000310
 41,0.00038962,0.00003358,0.00002367,-0.00004946,-0.00002557,0.00001888
 ,0.00000966,0.00004023,-0.00025560,0.00013691,-0.00001068,0.00000048,-
 0.00001763,-0.00002587,0.00018436,0.00002807,-0.00003459,0.00007666,-0
 .00003050,0.00019568,-0.00056861,0.00008288,-0.00001830,0.00002397,-0.
 00002106,0.00002841,-0.00005823,-0.00000288,0.00000789,0.00000986,-0.0
 0001462,-0.00000526,0.00003539,0.00001011,-0.00001077,-0.00000607,0.00
 000045,0.00005147,-0.00002827,-0.00013138,-0.00004199,-0.00004059,-0.0
 0001640,0.00000197,0.00002137,0.00000811,0.00003347,0.00031555,0.00029
 604,0.00027674,-0.00025876,-0.00035783,-0.00044363,0.00021009,0.000490
 44,-0.00000338,-0.00001875,0.00004822,-0.00002184,-0.00005337,-0.00009
 674,0.00003661,0.00008228,0.00001749,-0.00000891,-0.00005414,-0.000011
 88,0.00001250,-0.00000291,-0.00002521,-0.00001880,0.00000904,-0.000001
 17,-0.00014506,-0.00005094,-0.00000089,-0.00019901,-0.00007926,-0.0000
 9303,-0.00388043,-0.00017902,0.00331286,0.00114141,-0.00246819,-0.0007
 3481,0.00069851,0.00265602,-0.00365329,0.00108294,0.00028887,-0.001549
 18,-0.00014496,-0.00004794,-0.00043645,-0.00000343,-0.00000682,0.00002
 875,0.00011839,0.00006890,0.00066066,-0.12262356,0.16446579,0.01061270
 ,-0.02517099,0.04439185,0.00364110,0.14837740,0.00001667,0.00000109,-0
 .00000716,-0.00002247,-0.00002877,0.00001417,0.00000081,-0.00000770,0.
 00000098,-0.00000887,-0.00001290,0.00000444,-0.00000191,-0.00000265,-0
 .00000255,0.00004250,0.00004601,-0.00001703,0.00001065,0.00000894,-0.0
 0000693,-0.00002556,0.00000711,0.00000698,-0.00000939,0.00006132,-0.00
 000808,-0.00002332,-0.00000974,-0.00000033,-0.00000556,0.00001145,0.00
 001383,0.00000953,-0.00003287,-0.00000230,-0.00005272,0.00000207,0.000
 03892,0.00001768,-0.00001471,-0.00003061,0.00003767,-0.00000730,0.0000
 2318,-0.00001508,-0.00000321,0.00001705,0.00002897,0.00000670,0.000006
 17,-0.00001477,-0.00000329,-0.00000048,0.00000737,0.00000134,-0.000005
 93,0.00000024,-0.00000377,0.00000871,0.00000733,-0.00001814,-0.0000089
 3,-0.00000135,-0.00002846,-0.00005134,0.00005741,-0.00002689,0.0000889
 5,0.00006404,-0.00008278,0.00035618,-0.00004953,-0.00008774,0.00005922
 ,0.00002051,0.00000419,0.00003977,-0.00016577,0.00054256,-0.00045763,-
 0.00005545,0.00003147,-0.00003384,0.00019994,-0.00004737,0.00004014,0.
 00000511,-0.00000560,0.00007538,-0.00069010,-0.00091176,-0.00075910,0.
 00000090,-0.00002174,0.00003208,-0.00006839,-0.00003792,-0.00003841,-0
 .00007261,0.00002537,-0.00019216,0.00002268,-0.00001450,-0.00003885,-0
 .00002124,0.00001694,-0.00001167,0.00024257,-0.00004450,0.00013734,0.0
 0001030,0.00005359,0.00004515,-0.00011757,0.00001150,-0.00008562,-0.00
 000898,0.00002238,-0.00001087,0.00031757,-0.00013889,0.00040823,0.0000
 4377,0.00010940,-0.00010077,0.00011284,-0.00009400,0.00037964,-0.00002
 680,0.00005736,-0.00005089,0.00001722,-0.00027271,0.00006661,0.0000545
 4,0.00015713,0.00018173,0.00037883,0.00049312,-0.00049295,-0.00003996,
 -0.00001053,-0.00000943,-0.00000848,0.00001086,0.00000747,-0.00000020,
 -0.00011904,0.00009471,-0.00000295,0.00000789,-0.00002490,-0.00002917,
 0.00009739,0.00008114,0.00000075,-0.00000769,0.00000227,0.00003736,-0.
 00047086,0.00013015,0.00000074,0.00004303,-0.00003673,0.00003455,-0.00
 006700,-0.00000059,-0.00000149,0.00000805,-0.00002135,0.00000260,0.000
 01109,0.00001042,-0.00000483,-0.00000135,0.00000750,0.00011023,-0.0000
 0695,-0.00006717,-0.00003073,-0.00002463,-0.00000620,-0.00000145,0.000
 03999,0.00001611,0.00002705,0.00014540,0.00009925,0.00014408,0.0001991
 3,0.00011059,-0.00003572,-0.00034120,-0.00009608,-0.00001507,-0.000067
 34,-0.00004137,-0.00003387,0.00000615,0.00001286,-0.00001319,0.0000441
 0,-0.00003899,-0.00000769,-0.00002547,-0.00001142,0.00001058,-0.000005
 63,-0.00000596,-0.00000369,0.00001816,0.00000120,-0.00002801,-0.000005
 53,-0.00004242,-0.00011026,-0.00013644,-0.00010699,-0.00511413,0.00517
 596,0.00027884,-0.00043627,-0.00371659,0.00192161,0.00368745,-0.002707
 90,-0.00228516,0.00164700,-0.00075227,-0.00126237,-0.00012342,-0.00018
 152,-0.00034372,-0.00000636,0.00001695,0.00002099,0.00011696,0.0001249
 2,0.00056020,0.20975076,-0.43709747,-0.00177465,-0.00144610,0.00257530
 ,0.00061811,-0.20834729,0.43750993,0.00000016,-0.00001572,-0.00002357,
 0.00002483,0.00001945,0.00005496,0.00001601,-0.00001403,-0.00000475,-0
 .00000264,0.00001686,0.00001583,-0.00000718,0.00000498,-0.00000383,-0.
 00004082,0.00000115,-0.00000970,-0.00001826,0.00000297,-0.00000957,0.0
 0002132,-0.00000694,-0.00000970,0.00005672,0.00000531,0.00004156,0.000
 01512,0.00000018,-0.00000330,-0.00003074,0.00000659,0.00000681,0.00004
 070,-0.00000629,-0.00000866,-0.00005963,-0.00000652,-0.00000315,0.0000
 1284,-0.00004096,0.00002157,0.00002309,-0.00000785,-0.00000027,-0.0000
 1758,0.00000750,-0.00000573,0.00003628,0.00001086,0.00000146,-0.000006
 99,0.00001159,-0.00001136,0.00002174,0.00001923,-0.00000163,-0.0000071
 7,-0.00000522,-0.00000188,0.00000136,-0.00003019,0.00000025,0.00000275
 ,-0.00006042,0.00004466,0.00013432,-0.00000177,0.00001251,-0.00011812,
 0.00001491,0.00027870,-0.00001513,0.00000281,-0.00008841,0.00002349,-0
 .00001177,0.00001396,-0.00001814,0.00045462,-0.00033608,0.00006792,0.0
 0002902,-0.00001454,-0.00006530,0.00006332,-0.00001928,-0.00000786,-0.
 00002082,0.00002094,-0.00054068,-0.00104880,-0.00006803,-0.00001108,0.
 00001873,-0.00002400,0.00004423,0.00000262,-0.00000105,0.00002258,-0.0
 0013024,0.00018526,-0.00001168,0.00000340,0.00000938,0.00001490,0.0000
 0596,0.00001222,-0.00020226,-0.00009134,-0.00022412,0.00001867,0.00004
 759,0.00002313,0.00011533,-0.00006115,0.00002073,0.00000694,0.00000143
 ,0.00002148,-0.00030944,0.00054907,-0.00007306,0.00003659,0.00007029,0
 .00006125,-0.00005659,0.00012486,-0.00028004,0.00001010,-0.00003813,0.
 00002865,-0.00004262,-0.00040045,-0.00024223,0.00001070,0.00013628,0.0
 0011920,0.00071304,-0.00060681,-0.00141245,0.00003536,-0.00001924,-0.0
 0000106,-0.00000116,-0.00003823,-0.00000116,-0.00000867,0.00018409,-0.
 00008404,0.00000869,0.00000385,0.00000980,0.00006539,-0.00021719,0.000
 05048,0.00003342,-0.00001559,0.00004695,-0.00013648,0.00056077,0.00001
 245,-0.00000741,-0.00006769,0.00004055,-0.00002902,0.00002890,-0.00003
 122,0.00000592,0.00000679,0.00000378,0.00000729,0.00001368,0.00000859,
 -0.00000875,-0.00001440,-0.00000077,0.00003408,0.00008906,0.00002820,-
 0.00003206,0.00005607,0.00003573,0.00002283,-0.00002829,-0.00003418,-0
 .00001002,-0.00016415,-0.00006797,0.00028080,-0.00075291,-0.00017094,-
 0.00033339,0.00080222,0.00067466,-0.00000641,-0.00005055,-0.00006077,-
 0.00005255,-0.00009602,-0.00025116,-0.00004726,0.00021015,-0.00013726,
 0.00002145,-0.00003922,0.00001183,-0.00000033,-0.00001061,-0.00007640,
 -0.00001942,0.00005362,0.00006374,0.00001270,-0.00003124,-0.00003834,-
 0.00000861,0.00000648,0.00013123,0.00495828,-0.00270174,-0.00149036,-0
 .00091611,0.00267295,-0.00141638,-0.00421856,-0.00187035,0.00045622,-0
 .00108595,0.00039960,0.00132725,-0.00000535,0.00003939,0.00036373,0.00
 000427,-0.00001536,-0.00002584,-0.00004678,-0.00002012,-0.00046402,0.0
 0338724,0.01396879,-0.01240074,0.01033308,-0.01454134,0.00498407,-0.01
 213835,0.00257162,0.01038925\\0.00000087,-0.00000014,0.00000075,-0.000
 00045,0.00000022,-0.00000041,0.00000018,0.00000043,0.00000040,0.000000
 02,0.00000012,0.00000017,-0.00000009,0.00000035,0.,0.00000075,-0.00000
 017,0.00000085,0.00000056,0.00000021,0.00000066,0.00000032,0.00000043,
 0.00000047,0.00000046,0.00000003,-0.00000003,-0.00000023,0.00000025,0.
 00000008,0.00000015,0.00000053,0.00000042,-0.00000024,0.00000016,0.000
 00058,0.00000007,0.00000011,0.00000041,0.00000026,0.00000036,0.0000007
 6,-0.00000014,0.00000015,0.00000043,-0.00000015,0.00000024,0.00000024,
 -0.00000033,0.00000032,0.00000049,0.00000023,0.00000043,0.00000030,-0.
 00000046,-0.00000006,0.00000058,-0.00000030,0.00000004,0.00000052,-0.0
 0000055,0.00000021,0.00000037,-0.00000090,0.,0.00000024,0.00000036,-0.
 00000019,0.00000023,0.00000076,-0.00000021,0.00000005,-0.00000020,0.00
 000100,0.00000009,-0.00000030,0.00000009,0.00000014,0.00000014,0.00000
 018,-0.00000045,-0.00000007,0.00000008,0.00000060,-0.00000065,-0.00000
 054,0.00000004,-0.00000020,-0.00000011,-0.00000002,0.00000008,-0.00000
 015,0.00000031,-0.00000054,0.00000017,-0.00000035,0.00000004,-0.000000
 02,0.00000025,0.00000010,0.00000015,0.00000045,0.00000019,0.00000009,-
 0.00000047,-0.00000005,0.00000007,0.00000028,0.00000048,0.00000065,0.0
 0000016,0.00000029,0.00000004,0.00000022,0.00000014,-0.00000080,-0.000
 00003,-0.00000022,-0.00000018,0.00000037,0.00000034,0.00000023,-0.0000
 0040,0.00000050,-0.00000010,-0.00000012,-0.00000239,0.00000021,-0.0000
 0115,0.,0.00000021,-0.00000006,0.00000046,-0.00000082,0.00000056,-0.00
 000006,-0.00000010,-0.00000029,0.00000001,-0.00000004,-0.00000007,0.00
 000030,-0.00000033,-0.00000032,0.00000004,0.00000002,-0.00000036,0.000
 00055,-0.00000076,-0.00000070,-0.00000014,-0.00000056,-0.00000018,0.00
 000065,-0.00000055,0.,0.00000030,-0.00000016,-0.00000007,-0.00000050,0
 .00000055,-0.00000017,0.00000026,-0.00000018,-0.00000057,-0.00000047,-
 0.00000011,-0.00000074,-0.00000004,-0.00000007,0.00000020,0.00000033,-
 0.00000002,-0.00000026,0.00000031,0.,-0.00000018,-0.00000003,0.0000001
 5,-0.00000077,-0.00000030,-0.00000018,-0.00000017,-0.00000037,-0.00000
 028,-0.00000017,0.00000009,-0.00000026,-0.00000015,-0.00000069,-0.0000
 0042,0.00000009,-0.00000015,0.00000011,-0.00000008,0.00000004,0.000000
 16,-0.00000016,-0.00000003,-0.00000032,-0.00000030,0.00000057,-0.00000
 054,0.00000021,-0.00000072,-0.00000026,-0.00000005,-0.00000034,0.00000
 013,-0.00000037,-0.00000047,-0.00000001,-0.00000020,-0.00000003,0.0000
 0037,-0.00000066,-0.00000066,0.00000064,-0.00000038,-0.00000084,0.0000
 0182,-0.00000119,0.00000055,-0.00000026,-0.00000008,0.00000058,-0.0000
 0084,0.00000020,0.00000203,-0.00000100,0.00000017,0.00000068,0.0000002
 0,0.00000030,-0.00000049,-0.00000026,-0.00000038,-0.00000106,-0.000000
 60,-0.00000097,0.00000050,-0.00000033,0.00000009,-0.00000017,-0.000001
 55,0.00000056,0.00000047,0.00000157,-0.00000080\\\@


 My opinions may have changed, but not the fact that I am right.
                       -- Ashleigh Brilliant
 Job cpu time:      14 days 15 hours 26 minutes 36.2 seconds.
 Elapsed time:       0 days 17 hours 46 minutes 51.8 seconds.
 File lengths (MBytes):  RWF=  35979 Int=      0 D2E=      0 Chk=    144 Scr=      1
 Normal termination of Gaussian 16 at Sun Mar 17 10:19:40 2024.
