 Entering Gaussian System, Link 0=g16
 Input=4water-ofreq.gjf
 Output=4water-ofreq.log
 Initial command:
 /packages/apps/gaussian/g16/g16/l1.exe "/scratch/mdturne9/3-5-methyl/oFreq/Gau-310111.inp" -scrdir="/scratch/mdturne9/3-5-methyl/oFreq/"
 Entering Link 1 = /packages/apps/gaussian/g16/g16/l1.exe PID=    310120.
  
 Copyright (c) 1988,1990,1992,1993,1995,1998,2003,2009,2016,
            Gaussian, Inc.  All Rights Reserved.
  
 This is part of the Gaussian(R) 16 program.  It is based on
 the Gaussian(R) 09 system (copyright 2009, Gaussian, Inc.),
 the Gaussian(R) 03 system (copyright 2003, Gaussian, Inc.),
 the Gaussian(R) 98 system (copyright 1998, Gaussian, Inc.),
 the Gaussian(R) 94 system (copyright 1995, Gaussian, Inc.),
 the Gaussian 92(TM) system (copyright 1992, Gaussian, Inc.),
 the Gaussian 90(TM) system (copyright 1990, Gaussian, Inc.),
 the Gaussian 88(TM) system (copyright 1988, Gaussian, Inc.),
 the Gaussian 86(TM) system (copyright 1986, Carnegie Mellon
 University), and the Gaussian 82(TM) system (copyright 1983,
 Carnegie Mellon University). Gaussian is a federally registered
 trademark of Gaussian, Inc.
  
 This software contains proprietary and confidential information,
 including trade secrets, belonging to Gaussian, Inc.
  
 This software is provided under written license and may be
 used, copied, transmitted, or stored only in accord with that
 written license.
  
 The following legend is applicable only to US Government
 contracts under FAR:
  
                    RESTRICTED RIGHTS LEGEND
  
 Use, reproduction and disclosure by the US Government is
 subject to restrictions as set forth in subparagraphs (a)
 and (c) of the Commercial Computer Software - Restricted
 Rights clause in FAR 52.227-19.
  
 Gaussian, Inc.
 340 Quinnipiac St., Bldg. 40, Wallingford CT 06492
  
  
 ---------------------------------------------------------------
 Warning -- This program may not be used in any manner that
 competes with the business of Gaussian, Inc. or will provide
 assistance to any competitor of Gaussian, Inc.  The licensee
 of this program is prohibited from giving any competitor of
 Gaussian, Inc. access to this program.  By using this program,
 the user acknowledges that Gaussian, Inc. is engaged in the
 business of creating and licensing software in the field of
 computational chemistry and represents and warrants to the
 licensee that it is not a competitor of Gaussian, Inc. and that
 it will not use this program in any manner prohibited above.
 ---------------------------------------------------------------
  

 Cite this work as:
 Gaussian 16, Revision A.03,
 M. J. Frisch, G. W. Trucks, H. B. Schlegel, G. E. Scuseria, 
 M. A. Robb, J. R. Cheeseman, G. Scalmani, V. Barone, 
 G. A. Petersson, H. Nakatsuji, X. Li, M. Caricato, A. V. Marenich, 
 J. Bloino, B. G. Janesko, R. Gomperts, B. Mennucci, H. P. Hratchian, 
 J. V. Ortiz, A. F. Izmaylov, J. L. Sonnenberg, D. Williams-Young, 
 F. Ding, F. Lipparini, F. Egidi, J. Goings, B. Peng, A. Petrone, 
 T. Henderson, D. Ranasinghe, V. G. Zakrzewski, J. Gao, N. Rega, 
 G. Zheng, W. Liang, M. Hada, M. Ehara, K. Toyota, R. Fukuda, 
 J. Hasegawa, M. Ishida, T. Nakajima, Y. Honda, O. Kitao, H. Nakai, 
 T. Vreven, K. Throssell, J. A. Montgomery, Jr., J. E. Peralta, 
 F. Ogliaro, M. J. Bearpark, J. J. Heyd, E. N. Brothers, K. N. Kudin, 
 V. N. Staroverov, T. A. Keith, R. Kobayashi, J. Normand, 
 K. Raghavachari, A. P. Rendell, J. C. Burant, S. S. Iyengar, 
 J. Tomasi, M. Cossi, J. M. Millam, M. Klene, C. Adamo, R. Cammi, 
 J. W. Ochterski, R. L. Martin, K. Morokuma, O. Farkas, 
 J. B. Foresman, and D. J. Fox, Gaussian, Inc., Wallingford CT, 2016.
 
 ******************************************
 Gaussian 16:  ES64L-G16RevA.03 25-Dec-2016
                16-Mar-2024 
 ******************************************
 %nprocshared=20
 Will use up to   20 processors via shared memory.
 %mem=13GB
 %chk=4water-ofreq.chk
 ---------------------------------------------------
 #p opt freq wb97xd/6-311+g(2d,2p) geom=connectivity
 ---------------------------------------------------
 1/18=20,19=15,26=3,38=1,57=2/1,3;
 2/9=110,12=2,17=6,18=5,40=1/2;
 3/5=4,6=6,7=212,11=2,25=1,30=1,71=1,74=-58/1,2,3;
 4//1;
 5/5=2,38=5/2;
 6/7=2,8=2,9=2,10=2,28=1/1;
 7//1,2,3,16;
 1/18=20,19=15,26=3/3(2);
 2/9=110/2;
 99//99;
 2/9=110/2;
 3/5=4,6=6,7=212,11=2,25=1,30=1,71=1,74=-58/1,2,3;
 4/5=5,16=3,69=1/1;
 5/5=2,38=5/2;
 7//1,2,3,16;
 1/18=20,19=15,26=3/3(-5);
 2/9=110/2;
 6/7=2,8=2,9=2,10=2,19=2,28=1/1;
 99/9=1/99;
 Leave Link    1 at Sat Mar 16 16:07:03 2024, MaxMem=  1744830464 cpu:               2.6 elap:               0.3
 (Enter /packages/apps/gaussian/g16/g16/l101.exe)
 ---------------------------
 carb4water2 opt freq High 2
 ---------------------------
 Symbolic Z-matrix:
 Charge =  0 Multiplicity = 1
 C                    0     5.82905   2.80325  -0.83653  H 
 C                    0     5.64533   1.32205  -1.14354  H 
 H                    0     6.45808   3.28378  -1.58577  H 
 H                    0     4.87084   3.32348  -0.81742  H 
 H                    0     6.3022    2.94418   0.13733  H 
 C                    0     4.79995   0.57822  -0.09932  H 
 H                    0     5.18037   1.20442  -2.12641  H 
 H                    0     6.62254   0.8367   -1.20684  H 
 C                    0     4.79937  -0.932    -0.39238  H 
 H                    0     5.28307   0.71705   0.87352  H 
 H                    0     4.45488  -1.10495  -1.41556  H 
 H                    0     5.84079  -1.26277  -0.37103  H 
 C                    0     3.99252  -1.81263   0.58154  H 
 C                    0     4.56301  -3.24151   0.60502  H 
 H                    0     4.11473  -1.39785   1.58743  H 
 H                    0     4.50397  -3.66569  -0.40168  H 
 H                    0     5.62629  -3.17993   0.84872  H 
 C                    0     3.86875  -4.16729   1.59636  H 
 H                    0     4.34504  -5.14754   1.61376  H 
 H                    0     3.91042  -3.75693   2.60727  H 
 H                    0     2.81813  -4.30717   1.34114  H 
 C                    0     2.50483  -1.83289   0.28099  H 
 C                    0     1.57259  -1.43439   1.23097  H 
 C                    0     2.03221  -2.25066  -0.96162  H 
 C                    0     0.21496  -1.43011   0.94892  H 
 H                    0     1.91428  -1.08681   2.19723  H 
 C                    0     0.67931  -2.23983  -1.25114  H 
 H                    0     2.7314   -2.55891  -1.72907  H 
 C                    0    -0.25166  -1.83982  -0.29564  H 
 H                    0    -0.49346  -1.07686   1.68847  H 
 H                    0     0.34492  -2.51724  -2.24311  H 
 C                    0     3.40556   1.15455   0.01132  H 
 C                    0     2.97407   1.7549    1.18637  H 
 C                    0     2.49815   1.03971  -1.03985  H 
 C                    0     1.66269   2.18788   1.32523  H 
 H                    0     3.66071   1.85356   2.01823  H 
 C                    0     1.1843    1.44365  -0.90051  H 
 H                    0     2.80331   0.56253  -1.96225  H 
 C                    0     0.7494    2.02449   0.29107  H 
 H                    0     1.33436   2.6116    2.26673  H 
 H                    0     0.47048   1.25893  -1.69476  H 
 C                    0    -0.69962   2.34323   0.50384  H 
 H                    0    -1.35462   1.60749   0.04604  H 
 H                    0    -0.94522   2.35259   1.56264  H 
 C                    0    -1.71998  -1.77266  -0.59412  H 
 H                    0    -2.19249  -1.05185   0.07242  H 
 H                    0    -1.90857  -1.46516  -1.62047  H 
 C                    0    -2.64557   3.77012   0.15786  H 
 H                    0    -2.97932   4.7372   -0.21297  H 
 H                    0    -3.10098   2.947    -0.39747  H 
 H                    0    -2.86973   3.66047   1.2162   H 
 C                    0    -0.83846   3.85956  -1.46378  H 
 H                    0     0.2401    3.89031  -1.58734  H 
 H                    0    -1.2505    3.01448  -2.01393  H 
 H                    0    -1.27894   4.79348  -1.80505  H 
 C                    0    -0.51759   4.78151   0.76504  H 
 H                    0    -0.80184   4.66336   1.80767  H 
 H                    0     0.56154   4.70883   0.65829  H 
 H                    0    -0.86668   5.7404    0.38925  H 
 C                    0    -3.92363  -2.81033  -0.67314  H 
 H                    0    -4.4662   -3.74737  -0.56624  H 
 H                    0    -4.29327  -2.06145   0.02875  H 
 H                    0    -4.02128  -2.40826  -1.68028  H 
 C                    0    -1.9918   -4.11048  -1.35232  H 
 H                    0    -2.09847  -3.72781  -2.36434  H 
 H                    0    -0.95025  -4.3353   -1.143    H 
 H                    0    -2.59538  -5.00653  -1.2312   H 
 C                    0    -2.33052  -3.57865   0.9967   H 
 H                    0    -1.27912  -3.76431   1.19734  H 
 H                    0    -2.74019  -2.83226   1.68282  H 
 H                    0    -2.89421  -4.50536   1.08212  H 
 N                    0    -1.15848   3.69792  -0.01939  H 
 N                    0    -2.47583  -3.0814   -0.40096  H 
 C                    0    -3.93361   0.46669   0.23397  H 
 O                    0    -3.65177   1.00069  -0.92408  H 
 O                    0    -5.011    -0.12856   0.43785  H 
 O                    0    -2.9974    0.52826   1.15037  H 
 O                    0    -3.75333  -1.40849   2.81089  L    H        70    0.        0.        0.        0. 
 H                    0    -4.67131  -1.3856    2.52848  L 
 H                    0    -3.40504  -0.6499    2.27771  L    H        77    0.        0.        0.        0. 
 O                    0    -2.64343   2.36113   3.02152  L 
 H                    0    -2.87018   1.65994   2.35818  L    H        77    0.        0.        0.        0. 
 H                    0    -3.07999   2.09048   3.82764  L 
 O                    0    -1.59467   0.9003   -2.54754  L    H        54    0.        0.        0.        0. 
 H                    0    -2.09698   0.55972  -3.2917   L 
 H                    0    -2.28954   0.94306  -1.83823  L    H        75    0.        0.        0.        0. 
 O                    0    -4.18275  -0.54392  -2.99948  L 
 H                    0    -5.07054  -0.44885  -3.34044  L 
 H                    0    -4.15487   0.03726  -2.19067  L    H        75    0.        0.        0.        0. 
 
 Warning:  atom H80 in layer R is uses the same element as its link atom.
 Warning:  atom H82 in layer R is uses the same element as its link atom.
 Warning:  atom H86 in layer R is uses the same element as its link atom.
 Warning:  atom H89 in layer R is uses the same element as its link atom.
 Add virtual bond connecting atoms H86        and O75        Dist= 3.10D+00.
 Add virtual bond connecting atoms H82        and O77        Dist= 3.14D+00.
 Add virtual bond connecting atoms H89        and O75        Dist= 3.15D+00.
 Add virtual bond connecting atoms H80        and O77        Dist= 3.18D+00.
 Add virtual bond connecting atoms O75        and H50        Dist= 3.95D+00.
 Add virtual bond connecting atoms O76        and H62        Dist= 3.97D+00.
 Add virtual bond connecting atoms O77        and H46        Dist= 3.92D+00.
 Add virtual bond connecting atoms O78        and H70        Dist= 3.93D+00.
 Add virtual bond connecting atoms H82        and H44        Dist= 4.15D+00.
 ITRead=  0  0  0  0  0  0  0  0  0  0  0  0  0  0  0  0  0  0  0  0
 ITRead=  0  0  0  0  0  0  0  0  0  0  0  0  0  0  0  0  0  0  0  0
 ITRead=  0  0  0  0  0  0  0  0  0  0  0  0  0  0  0  0  0  0  0  0
 ITRead=  0  0  0  0  0  0  0  0  0  0  0  0  0  0  0  0  0  0  0  0
 ITRead=  0  0  0  0  0  0  0  0  0
 MicOpt= -1 -1 -1 -1 -1 -1 -1 -1 -1 -1 -1 -1 -1 -1 -1 -1 -1 -1 -1 -1
 MicOpt= -1 -1 -1 -1 -1 -1 -1 -1 -1 -1 -1 -1 -1 -1 -1 -1 -1 -1 -1 -1
 MicOpt= -1 -1 -1 -1 -1 -1 -1 -1 -1 -1 -1 -1 -1 -1 -1 -1 -1 -1 -1 -1
 MicOpt= -1 -1 -1 -1 -1 -1 -1 -1 -1 -1 -1 -1 -1 -1 -1 -1 -1 -1 -1 -1
 MicOpt= -1 -1 -1 -1 -1 -1 -1 -1 -1
 NAtoms=     89 NQM=       89 NQMF=       0 NMMI=      0 NMMIF=      0
                NMic=       0 NMicF=      0.
                    Isotopes and Nuclear Properties:
 (Nuclear quadrupole moments (NQMom) in fm**2, nuclear magnetic moments (NMagM)
  in nuclear magnetons)

  Atom         1           2           3           4           5           6           7           8           9          10
 IAtWgt=          12          12           1           1           1          12           1           1          12           1
 AtmWgt=  12.0000000  12.0000000   1.0078250   1.0078250   1.0078250  12.0000000   1.0078250   1.0078250  12.0000000   1.0078250
 NucSpn=           0           0           1           1           1           0           1           1           0           1
 AtZEff=  -0.0000000  -0.0000000  -0.0000000  -0.0000000  -0.0000000  -0.0000000  -0.0000000  -0.0000000  -0.0000000  -0.0000000
 NQMom=    0.0000000   0.0000000   0.0000000   0.0000000   0.0000000   0.0000000   0.0000000   0.0000000   0.0000000   0.0000000
 NMagM=    0.0000000   0.0000000   2.7928460   2.7928460   2.7928460   0.0000000   2.7928460   2.7928460   0.0000000   2.7928460
 AtZNuc=   6.0000000   6.0000000   1.0000000   1.0000000   1.0000000   6.0000000   1.0000000   1.0000000   6.0000000   1.0000000

  Atom        11          12          13          14          15          16          17          18          19          20
 IAtWgt=           1           1          12          12           1           1           1          12           1           1
 AtmWgt=   1.0078250   1.0078250  12.0000000  12.0000000   1.0078250   1.0078250   1.0078250  12.0000000   1.0078250   1.0078250
 NucSpn=           1           1           0           0           1           1           1           0           1           1
 AtZEff=  -0.0000000  -0.0000000  -0.0000000  -0.0000000  -0.0000000  -0.0000000  -0.0000000  -0.0000000  -0.0000000  -0.0000000
 NQMom=    0.0000000   0.0000000   0.0000000   0.0000000   0.0000000   0.0000000   0.0000000   0.0000000   0.0000000   0.0000000
 NMagM=    2.7928460   2.7928460   0.0000000   0.0000000   2.7928460   2.7928460   2.7928460   0.0000000   2.7928460   2.7928460
 AtZNuc=   1.0000000   1.0000000   6.0000000   6.0000000   1.0000000   1.0000000   1.0000000   6.0000000   1.0000000   1.0000000

  Atom        21          22          23          24          25          26          27          28          29          30
 IAtWgt=           1          12          12          12          12           1          12           1          12           1
 AtmWgt=   1.0078250  12.0000000  12.0000000  12.0000000  12.0000000   1.0078250  12.0000000   1.0078250  12.0000000   1.0078250
 NucSpn=           1           0           0           0           0           1           0           1           0           1
 AtZEff=  -0.0000000  -0.0000000  -0.0000000  -0.0000000  -0.0000000  -0.0000000  -0.0000000  -0.0000000  -0.0000000  -0.0000000
 NQMom=    0.0000000   0.0000000   0.0000000   0.0000000   0.0000000   0.0000000   0.0000000   0.0000000   0.0000000   0.0000000
 NMagM=    2.7928460   0.0000000   0.0000000   0.0000000   0.0000000   2.7928460   0.0000000   2.7928460   0.0000000   2.7928460
 AtZNuc=   1.0000000   6.0000000   6.0000000   6.0000000   6.0000000   1.0000000   6.0000000   1.0000000   6.0000000   1.0000000

  Atom        31          32          33          34          35          36          37          38          39          40
 IAtWgt=           1          12          12          12          12           1          12           1          12           1
 AtmWgt=   1.0078250  12.0000000  12.0000000  12.0000000  12.0000000   1.0078250  12.0000000   1.0078250  12.0000000   1.0078250
 NucSpn=           1           0           0           0           0           1           0           1           0           1
 AtZEff=  -0.0000000  -0.0000000  -0.0000000  -0.0000000  -0.0000000  -0.0000000  -0.0000000  -0.0000000  -0.0000000  -0.0000000
 NQMom=    0.0000000   0.0000000   0.0000000   0.0000000   0.0000000   0.0000000   0.0000000   0.0000000   0.0000000   0.0000000
 NMagM=    2.7928460   0.0000000   0.0000000   0.0000000   0.0000000   2.7928460   0.0000000   2.7928460   0.0000000   2.7928460
 AtZNuc=   1.0000000   6.0000000   6.0000000   6.0000000   6.0000000   1.0000000   6.0000000   1.0000000   6.0000000   1.0000000

  Atom        41          42          43          44          45          46          47          48          49          50
 IAtWgt=           1          12           1           1          12           1           1          12           1           1
 AtmWgt=   1.0078250  12.0000000   1.0078250   1.0078250  12.0000000   1.0078250   1.0078250  12.0000000   1.0078250   1.0078250
 NucSpn=           1           0           1           1           0           1           1           0           1           1
 AtZEff=  -0.0000000  -0.0000000  -0.0000000  -0.0000000  -0.0000000  -0.0000000  -0.0000000  -0.0000000  -0.0000000  -0.0000000
 NQMom=    0.0000000   0.0000000   0.0000000   0.0000000   0.0000000   0.0000000   0.0000000   0.0000000   0.0000000   0.0000000
 NMagM=    2.7928460   0.0000000   2.7928460   2.7928460   0.0000000   2.7928460   2.7928460   0.0000000   2.7928460   2.7928460
 AtZNuc=   1.0000000   6.0000000   1.0000000   1.0000000   6.0000000   1.0000000   1.0000000   6.0000000   1.0000000   1.0000000

  Atom        51          52          53          54          55          56          57          58          59          60
 IAtWgt=           1          12           1           1           1          12           1           1           1          12
 AtmWgt=   1.0078250  12.0000000   1.0078250   1.0078250   1.0078250  12.0000000   1.0078250   1.0078250   1.0078250  12.0000000
 NucSpn=           1           0           1           1           1           0           1           1           1           0
 AtZEff=  -0.0000000  -0.0000000  -0.0000000  -0.0000000  -0.0000000  -0.0000000  -0.0000000  -0.0000000  -0.0000000  -0.0000000
 NQMom=    0.0000000   0.0000000   0.0000000   0.0000000   0.0000000   0.0000000   0.0000000   0.0000000   0.0000000   0.0000000
 NMagM=    2.7928460   0.0000000   2.7928460   2.7928460   2.7928460   0.0000000   2.7928460   2.7928460   2.7928460   0.0000000
 AtZNuc=   1.0000000   6.0000000   1.0000000   1.0000000   1.0000000   6.0000000   1.0000000   1.0000000   1.0000000   6.0000000

  Atom        61          62          63          64          65          66          67          68          69          70
 IAtWgt=           1           1           1          12           1           1           1          12           1           1
 AtmWgt=   1.0078250   1.0078250   1.0078250  12.0000000   1.0078250   1.0078250   1.0078250  12.0000000   1.0078250   1.0078250
 NucSpn=           1           1           1           0           1           1           1           0           1           1
 AtZEff=  -0.0000000  -0.0000000  -0.0000000  -0.0000000  -0.0000000  -0.0000000  -0.0000000  -0.0000000  -0.0000000  -0.0000000
 NQMom=    0.0000000   0.0000000   0.0000000   0.0000000   0.0000000   0.0000000   0.0000000   0.0000000   0.0000000   0.0000000
 NMagM=    2.7928460   2.7928460   2.7928460   0.0000000   2.7928460   2.7928460   2.7928460   0.0000000   2.7928460   2.7928460
 AtZNuc=   1.0000000   1.0000000   1.0000000   6.0000000   1.0000000   1.0000000   1.0000000   6.0000000   1.0000000   1.0000000

  Atom        71          72          73          74          75          76          77          78          79          80
 IAtWgt=           1          14          14          12          16          16          16          16           1           1
 AtmWgt=   1.0078250  14.0030740  14.0030740  12.0000000  15.9949146  15.9949146  15.9949146  15.9949146   1.0078250   1.0078250
 NucSpn=           1           2           2           0           0           0           0           0           1           1
 AtZEff=  -0.0000000  -0.0000000  -0.0000000  -0.0000000  -0.0000000  -0.0000000  -0.0000000  -0.0000000  -0.0000000  -0.0000000
 NQMom=    0.0000000   2.0440000   2.0440000   0.0000000   0.0000000   0.0000000   0.0000000   0.0000000   0.0000000   0.0000000
 NMagM=    2.7928460   0.4037610   0.4037610   0.0000000   0.0000000   0.0000000   0.0000000   0.0000000   2.7928460   2.7928460
 AtZNuc=   1.0000000   7.0000000   7.0000000   6.0000000   8.0000000   8.0000000   8.0000000   8.0000000   1.0000000   1.0000000

  Atom        81          82          83          84          85          86          87          88          89
 IAtWgt=          16           1           1          16           1           1          16           1           1
 AtmWgt=  15.9949146   1.0078250   1.0078250  15.9949146   1.0078250   1.0078250  15.9949146   1.0078250   1.0078250
 NucSpn=           0           1           1           0           1           1           0           1           1
 AtZEff=  -0.0000000  -0.0000000  -0.0000000  -0.0000000  -0.0000000  -0.0000000  -0.0000000  -0.0000000  -0.0000000
 NQMom=    0.0000000   0.0000000   0.0000000   0.0000000   0.0000000   0.0000000   0.0000000   0.0000000   0.0000000
 NMagM=    0.0000000   2.7928460   2.7928460   0.0000000   2.7928460   2.7928460   0.0000000   2.7928460   2.7928460
 AtZNuc=   8.0000000   1.0000000   1.0000000   8.0000000   1.0000000   1.0000000   8.0000000   1.0000000   1.0000000
 Leave Link  101 at Sat Mar 16 16:07:05 2024, MaxMem=  1744830464 cpu:              14.9 elap:               1.5
 (Enter /packages/apps/gaussian/g16/g16/l103.exe)

 GradGradGradGradGradGradGradGradGradGradGradGradGradGradGradGradGradGrad
 Berny optimization.
 Initialization pass.
                           ----------------------------
                           !    Initial Parameters    !
                           ! (Angstroms and Degrees)  !
 --------------------------                            --------------------------
 ! Name  Definition              Value          Derivative Info.                !
 --------------------------------------------------------------------------------
 ! R1    R(1,2)                  1.5238         estimate D2E/DX2                !
 ! R2    R(1,3)                  1.0899         estimate D2E/DX2                !
 ! R3    R(1,4)                  1.0905         estimate D2E/DX2                !
 ! R4    R(1,5)                  1.0919         estimate D2E/DX2                !
 ! R5    R(2,6)                  1.5357         estimate D2E/DX2                !
 ! R6    R(2,7)                  1.0936         estimate D2E/DX2                !
 ! R7    R(2,8)                  1.0929         estimate D2E/DX2                !
 ! R8    R(6,9)                  1.5384         estimate D2E/DX2                !
 ! R9    R(6,10)                 1.095          estimate D2E/DX2                !
 ! R10   R(6,32)                 1.5129         estimate D2E/DX2                !
 ! R11   R(9,11)                 1.0934         estimate D2E/DX2                !
 ! R12   R(9,12)                 1.0929         estimate D2E/DX2                !
 ! R13   R(9,13)                 1.5411         estimate D2E/DX2                !
 ! R14   R(13,14)                1.5387         estimate D2E/DX2                !
 ! R15   R(13,15)                1.0949         estimate D2E/DX2                !
 ! R16   R(13,22)                1.5179         estimate D2E/DX2                !
 ! R17   R(14,16)                1.094          estimate D2E/DX2                !
 ! R18   R(14,17)                1.0926         estimate D2E/DX2                !
 ! R19   R(14,18)                1.5238         estimate D2E/DX2                !
 ! R20   R(18,19)                1.09           estimate D2E/DX2                !
 ! R21   R(18,20)                1.0918         estimate D2E/DX2                !
 ! R22   R(18,21)                1.0902         estimate D2E/DX2                !
 ! R23   R(22,23)                1.3894         estimate D2E/DX2                !
 ! R24   R(22,24)                1.3935         estimate D2E/DX2                !
 ! R25   R(23,25)                1.3866         estimate D2E/DX2                !
 ! R26   R(23,26)                1.0822         estimate D2E/DX2                !
 ! R27   R(24,27)                1.3836         estimate D2E/DX2                !
 ! R28   R(24,28)                1.083          estimate D2E/DX2                !
 ! R29   R(25,29)                1.3909         estimate D2E/DX2                !
 ! R30   R(25,30)                1.0833         estimate D2E/DX2                !
 ! R31   R(27,29)                1.3927         estimate D2E/DX2                !
 ! R32   R(27,31)                1.083          estimate D2E/DX2                !
 ! R33   R(29,45)                1.4999         estimate D2E/DX2                !
 ! R34   R(32,33)                1.3883         estimate D2E/DX2                !
 ! R35   R(32,34)                1.3934         estimate D2E/DX2                !
 ! R36   R(33,35)                1.388          estimate D2E/DX2                !
 ! R37   R(33,36)                1.0831         estimate D2E/DX2                !
 ! R38   R(34,37)                1.3816         estimate D2E/DX2                !
 ! R39   R(34,38)                1.0824         estimate D2E/DX2                !
 ! R40   R(35,39)                1.3893         estimate D2E/DX2                !
 ! R41   R(35,40)                1.0834         estimate D2E/DX2                !
 ! R42   R(37,39)                1.3951         estimate D2E/DX2                !
 ! R43   R(37,41)                1.0837         estimate D2E/DX2                !
 ! R44   R(39,42)                1.4988         estimate D2E/DX2                !
 ! R45   R(42,43)                1.0862         estimate D2E/DX2                !
 ! R46   R(42,44)                1.0869         estimate D2E/DX2                !
 ! R47   R(42,72)                1.523          estimate D2E/DX2                !
 ! R48   R(44,82)                2.195          estimate D2E/DX2                !
 ! R49   R(45,46)                1.0895         estimate D2E/DX2                !
 ! R50   R(45,47)                1.0879         estimate D2E/DX2                !
 ! R51   R(45,73)                1.5236         estimate D2E/DX2                !
 ! R52   R(46,77)                2.0752         estimate D2E/DX2                !
 ! R53   R(48,49)                1.0882         estimate D2E/DX2                !
 ! R54   R(48,50)                1.0924         estimate D2E/DX2                !
 ! R55   R(48,51)                1.0874         estimate D2E/DX2                !
 ! R56   R(48,72)                1.4993         estimate D2E/DX2                !
 ! R57   R(50,75)                2.0902         estimate D2E/DX2                !
 ! R58   R(52,53)                1.0861         estimate D2E/DX2                !
 ! R59   R(52,54)                1.0893         estimate D2E/DX2                !
 ! R60   R(52,55)                1.0875         estimate D2E/DX2                !
 ! R61   R(52,72)                1.4882         estimate D2E/DX2                !
 ! R62   R(56,57)                1.0871         estimate D2E/DX2                !
 ! R63   R(56,58)                1.0868         estimate D2E/DX2                !
 ! R64   R(56,59)                1.0875         estimate D2E/DX2                !
 ! R65   R(56,72)                1.4833         estimate D2E/DX2                !
 ! R66   R(60,61)                1.0881         estimate D2E/DX2                !
 ! R67   R(60,62)                1.0909         estimate D2E/DX2                !
 ! R68   R(60,63)                1.0888         estimate D2E/DX2                !
 ! R69   R(60,73)                1.4979         estimate D2E/DX2                !
 ! R70   R(62,76)                2.102          estimate D2E/DX2                !
 ! R71   R(64,65)                1.0872         estimate D2E/DX2                !
 ! R72   R(64,66)                1.0859         estimate D2E/DX2                !
 ! R73   R(64,67)                1.0871         estimate D2E/DX2                !
 ! R74   R(64,73)                1.4827         estimate D2E/DX2                !
 ! R75   R(68,69)                1.0864         estimate D2E/DX2                !
 ! R76   R(68,70)                1.0935         estimate D2E/DX2                !
 ! R77   R(68,71)                1.088          estimate D2E/DX2                !
 ! R78   R(68,73)                1.4906         estimate D2E/DX2                !
 ! R79   R(70,78)                2.0799         estimate D2E/DX2                !
 ! R80   R(74,75)                1.306          estimate D2E/DX2                !
 ! R81   R(74,76)                1.2477         estimate D2E/DX2                !
 ! R82   R(74,77)                1.3115         estimate D2E/DX2                !
 ! R83   R(75,86)                1.6415         estimate D2E/DX2                !
 ! R84   R(75,89)                1.669          estimate D2E/DX2                !
 ! R85   R(77,80)                1.6808         estimate D2E/DX2                !
 ! R86   R(77,82)                1.66           estimate D2E/DX2                !
 ! R87   R(78,79)                0.9607         estimate D2E/DX2                !
 ! R88   R(78,80)                0.9905         estimate D2E/DX2                !
 ! R89   R(81,82)                0.9915         estimate D2E/DX2                !
 ! R90   R(81,83)                0.9559         estimate D2E/DX2                !
 ! R91   R(84,85)                0.9603         estimate D2E/DX2                !
 ! R92   R(84,86)                0.9939         estimate D2E/DX2                !
 ! R93   R(87,88)                0.9558         estimate D2E/DX2                !
 ! R94   R(87,89)                0.9964         estimate D2E/DX2                !
 ! A1    A(2,1,3)              111.0781         estimate D2E/DX2                !
 ! A2    A(2,1,4)              111.1806         estimate D2E/DX2                !
 ! A3    A(2,1,5)              110.9413         estimate D2E/DX2                !
 ! A4    A(3,1,4)              107.9895         estimate D2E/DX2                !
 ! A5    A(3,1,5)              107.8267         estimate D2E/DX2                !
 ! A6    A(4,1,5)              107.6724         estimate D2E/DX2                !
 ! A7    A(1,2,6)              113.5904         estimate D2E/DX2                !
 ! A8    A(1,2,7)              109.6865         estimate D2E/DX2                !
 ! A9    A(1,2,8)              109.6047         estimate D2E/DX2                !
 ! A10   A(6,2,7)              108.9633         estimate D2E/DX2                !
 ! A11   A(6,2,8)              108.4508         estimate D2E/DX2                !
 ! A12   A(7,2,8)              106.2791         estimate D2E/DX2                !
 ! A13   A(2,6,9)              110.2532         estimate D2E/DX2                !
 ! A14   A(2,6,10)             107.4469         estimate D2E/DX2                !
 ! A15   A(2,6,32)             111.8753         estimate D2E/DX2                !
 ! A16   A(9,6,10)             107.0895         estimate D2E/DX2                !
 ! A17   A(9,6,32)             112.8027         estimate D2E/DX2                !
 ! A18   A(10,6,32)            107.06           estimate D2E/DX2                !
 ! A19   A(6,9,11)             109.4919         estimate D2E/DX2                !
 ! A20   A(6,9,12)             107.0395         estimate D2E/DX2                !
 ! A21   A(6,9,13)             116.1534         estimate D2E/DX2                !
 ! A22   A(11,9,12)            105.7016         estimate D2E/DX2                !
 ! A23   A(11,9,13)            109.6358         estimate D2E/DX2                !
 ! A24   A(12,9,13)            108.2761         estimate D2E/DX2                !
 ! A25   A(9,13,14)            110.253          estimate D2E/DX2                !
 ! A26   A(9,13,15)            107.7985         estimate D2E/DX2                !
 ! A27   A(9,13,22)            113.305          estimate D2E/DX2                !
 ! A28   A(14,13,15)           107.2407         estimate D2E/DX2                !
 ! A29   A(14,13,22)           110.7324         estimate D2E/DX2                !
 ! A30   A(15,13,22)           107.2398         estimate D2E/DX2                !
 ! A31   A(13,14,16)           109.0263         estimate D2E/DX2                !
 ! A32   A(13,14,17)           108.1721         estimate D2E/DX2                !
 ! A33   A(13,14,18)           113.9031         estimate D2E/DX2                !
 ! A34   A(16,14,17)           106.2376         estimate D2E/DX2                !
 ! A35   A(16,14,18)           109.7861         estimate D2E/DX2                !
 ! A36   A(17,14,18)           109.4224         estimate D2E/DX2                !
 ! A37   A(14,18,19)           110.9588         estimate D2E/DX2                !
 ! A38   A(14,18,20)           110.8939         estimate D2E/DX2                !
 ! A39   A(14,18,21)           111.3913         estimate D2E/DX2                !
 ! A40   A(19,18,20)           107.8524         estimate D2E/DX2                !
 ! A41   A(19,18,21)           108.0261         estimate D2E/DX2                !
 ! A42   A(20,18,21)           107.5634         estimate D2E/DX2                !
 ! A43   A(13,22,23)           121.226          estimate D2E/DX2                !
 ! A44   A(13,22,24)           120.8617         estimate D2E/DX2                !
 ! A45   A(23,22,24)           117.9122         estimate D2E/DX2                !
 ! A46   A(22,23,25)           121.2485         estimate D2E/DX2                !
 ! A47   A(22,23,26)           119.3898         estimate D2E/DX2                !
 ! A48   A(25,23,26)           119.3245         estimate D2E/DX2                !
 ! A49   A(22,24,27)           121.0558         estimate D2E/DX2                !
 ! A50   A(22,24,28)           119.8845         estimate D2E/DX2                !
 ! A51   A(27,24,28)           119.0283         estimate D2E/DX2                !
 ! A52   A(23,25,29)           120.6356         estimate D2E/DX2                !
 ! A53   A(23,25,30)           120.159          estimate D2E/DX2                !
 ! A54   A(29,25,30)           119.1782         estimate D2E/DX2                !
 ! A55   A(24,27,29)           120.8183         estimate D2E/DX2                !
 ! A56   A(24,27,31)           119.446          estimate D2E/DX2                !
 ! A57   A(29,27,31)           119.709          estimate D2E/DX2                !
 ! A58   A(25,29,27)           118.3099         estimate D2E/DX2                !
 ! A59   A(25,29,45)           119.5587         estimate D2E/DX2                !
 ! A60   A(27,29,45)           122.0546         estimate D2E/DX2                !
 ! A61   A(6,32,33)            120.8712         estimate D2E/DX2                !
 ! A62   A(6,32,34)            120.9084         estimate D2E/DX2                !
 ! A63   A(33,32,34)           118.1481         estimate D2E/DX2                !
 ! A64   A(32,33,35)           120.88           estimate D2E/DX2                !
 ! A65   A(32,33,36)           119.4984         estimate D2E/DX2                !
 ! A66   A(35,33,36)           119.5835         estimate D2E/DX2                !
 ! A67   A(32,34,37)           121.2727         estimate D2E/DX2                !
 ! A68   A(32,34,38)           119.7092         estimate D2E/DX2                !
 ! A69   A(37,34,38)           118.8779         estimate D2E/DX2                !
 ! A70   A(33,35,39)           120.6583         estimate D2E/DX2                !
 ! A71   A(33,35,40)           119.6886         estimate D2E/DX2                !
 ! A72   A(39,35,40)           119.5797         estimate D2E/DX2                !
 ! A73   A(34,37,39)           120.2862         estimate D2E/DX2                !
 ! A74   A(34,37,41)           120.1733         estimate D2E/DX2                !
 ! A75   A(39,37,41)           119.4448         estimate D2E/DX2                !
 ! A76   A(35,39,37)           118.6719         estimate D2E/DX2                !
 ! A77   A(35,39,42)           120.32           estimate D2E/DX2                !
 ! A78   A(37,39,42)           120.7406         estimate D2E/DX2                !
 ! A79   A(39,42,43)           112.2774         estimate D2E/DX2                !
 ! A80   A(39,42,44)           111.0115         estimate D2E/DX2                !
 ! A81   A(39,42,72)           115.5734         estimate D2E/DX2                !
 ! A82   A(43,42,44)           106.2671         estimate D2E/DX2                !
 ! A83   A(43,42,72)           106.0218         estimate D2E/DX2                !
 ! A84   A(44,42,72)           105.0058         estimate D2E/DX2                !
 ! A85   A(42,44,82)           123.2632         estimate D2E/DX2                !
 ! A86   A(29,45,46)           109.4172         estimate D2E/DX2                !
 ! A87   A(29,45,47)           111.7224         estimate D2E/DX2                !
 ! A88   A(29,45,73)           114.9589         estimate D2E/DX2                !
 ! A89   A(46,45,47)           108.3594         estimate D2E/DX2                !
 ! A90   A(46,45,73)           105.9955         estimate D2E/DX2                !
 ! A91   A(47,45,73)           106.0452         estimate D2E/DX2                !
 ! A92   A(49,48,50)           111.6257         estimate D2E/DX2                !
 ! A93   A(49,48,51)           110.9817         estimate D2E/DX2                !
 ! A94   A(49,48,72)           107.8613         estimate D2E/DX2                !
 ! A95   A(50,48,51)           109.4429         estimate D2E/DX2                !
 ! A96   A(50,48,72)           108.4875         estimate D2E/DX2                !
 ! A97   A(51,48,72)           108.3409         estimate D2E/DX2                !
 ! A98   A(48,50,75)           159.981          estimate D2E/DX2                !
 ! A99   A(53,52,54)           109.8863         estimate D2E/DX2                !
 ! A100  A(53,52,55)           110.0125         estimate D2E/DX2                !
 ! A101  A(53,52,72)           109.0892         estimate D2E/DX2                !
 ! A102  A(54,52,55)           110.7651         estimate D2E/DX2                !
 ! A103  A(54,52,72)           108.9392         estimate D2E/DX2                !
 ! A104  A(55,52,72)           108.104          estimate D2E/DX2                !
 ! A105  A(57,56,58)           110.277          estimate D2E/DX2                !
 ! A106  A(57,56,59)           110.0797         estimate D2E/DX2                !
 ! A107  A(57,56,72)           108.3497         estimate D2E/DX2                !
 ! A108  A(58,56,59)           110.1067         estimate D2E/DX2                !
 ! A109  A(58,56,72)           109.1601         estimate D2E/DX2                !
 ! A110  A(59,56,72)           108.8262         estimate D2E/DX2                !
 ! A111  A(61,60,62)           111.0395         estimate D2E/DX2                !
 ! A112  A(61,60,63)           111.3563         estimate D2E/DX2                !
 ! A113  A(61,60,73)           107.9557         estimate D2E/DX2                !
 ! A114  A(62,60,63)           108.1344         estimate D2E/DX2                !
 ! A115  A(62,60,73)           109.562          estimate D2E/DX2                !
 ! A116  A(63,60,73)           108.7596         estimate D2E/DX2                !
 ! A117  A(60,62,76)           150.7084         estimate D2E/DX2                !
 ! A118  A(65,64,66)           110.2681         estimate D2E/DX2                !
 ! A119  A(65,64,67)           109.8371         estimate D2E/DX2                !
 ! A120  A(65,64,73)           108.7204         estimate D2E/DX2                !
 ! A121  A(66,64,67)           109.9013         estimate D2E/DX2                !
 ! A122  A(66,64,73)           109.459          estimate D2E/DX2                !
 ! A123  A(67,64,73)           108.622          estimate D2E/DX2                !
 ! A124  A(69,68,70)           111.3071         estimate D2E/DX2                !
 ! A125  A(69,68,71)           109.9589         estimate D2E/DX2                !
 ! A126  A(69,68,73)           108.9377         estimate D2E/DX2                !
 ! A127  A(70,68,71)           109.7561         estimate D2E/DX2                !
 ! A128  A(70,68,73)           108.9121         estimate D2E/DX2                !
 ! A129  A(71,68,73)           107.8928         estimate D2E/DX2                !
 ! A130  A(42,72,48)           107.5208         estimate D2E/DX2                !
 ! A131  A(42,72,52)           111.4233         estimate D2E/DX2                !
 ! A132  A(42,72,56)           109.7508         estimate D2E/DX2                !
 ! A133  A(48,72,52)           108.8312         estimate D2E/DX2                !
 ! A134  A(48,72,56)           109.3196         estimate D2E/DX2                !
 ! A135  A(52,72,56)           109.9377         estimate D2E/DX2                !
 ! A136  A(45,73,60)           107.5185         estimate D2E/DX2                !
 ! A137  A(45,73,64)           110.6633         estimate D2E/DX2                !
 ! A138  A(45,73,68)           110.9199         estimate D2E/DX2                !
 ! A139  A(60,73,64)           108.9382         estimate D2E/DX2                !
 ! A140  A(60,73,68)           108.9644         estimate D2E/DX2                !
 ! A141  A(64,73,68)           109.7724         estimate D2E/DX2                !
 ! A142  A(75,74,76)           121.7576         estimate D2E/DX2                !
 ! A143  A(75,74,77)           116.5079         estimate D2E/DX2                !
 ! A144  A(76,74,77)           121.6438         estimate D2E/DX2                !
 ! A145  A(50,75,74)           102.3689         estimate D2E/DX2                !
 ! A146  A(50,75,86)            87.3818         estimate D2E/DX2                !
 ! A147  A(50,75,89)           143.9156         estimate D2E/DX2                !
 ! A148  A(74,75,86)           131.1877         estimate D2E/DX2                !
 ! A149  A(74,75,89)           111.8291         estimate D2E/DX2                !
 ! A150  A(86,75,89)            78.8873         estimate D2E/DX2                !
 ! A151  A(62,76,74)            96.4335         estimate D2E/DX2                !
 ! A152  A(46,77,74)            83.003          estimate D2E/DX2                !
 ! A153  A(46,77,80)            84.7644         estimate D2E/DX2                !
 ! A154  A(46,77,82)           150.1442         estimate D2E/DX2                !
 ! A155  A(74,77,80)           105.2255         estimate D2E/DX2                !
 ! A156  A(74,77,82)           126.5196         estimate D2E/DX2                !
 ! A157  A(80,77,82)            90.483          estimate D2E/DX2                !
 ! A158  A(70,78,79)           108.8027         estimate D2E/DX2                !
 ! A159  A(70,78,80)            93.4991         estimate D2E/DX2                !
 ! A160  A(79,78,80)            99.1786         estimate D2E/DX2                !
 ! A161  A(82,81,83)           105.0416         estimate D2E/DX2                !
 ! A162  A(44,82,77)            91.0673         estimate D2E/DX2                !
 ! A163  A(44,82,81)            79.558          estimate D2E/DX2                !
 ! A164  A(85,84,86)           101.6887         estimate D2E/DX2                !
 ! A165  A(88,87,89)           104.9258         estimate D2E/DX2                !
 ! A166  A(75,89,87)           163.9867         estimate D2E/DX2                !
 ! A167  L(45,46,77,1,-1)      174.6027         estimate D2E/DX2                !
 ! A168  L(68,70,78,1,-1)      184.0373         estimate D2E/DX2                !
 ! A169  L(77,80,78,13,-1)     183.979          estimate D2E/DX2                !
 ! A170  L(77,82,81,44,-1)     170.6252         estimate D2E/DX2                !
 ! A171  L(75,86,84,20,-1)     189.6825         estimate D2E/DX2                !
 ! A172  L(45,46,77,1,-2)      173.741          estimate D2E/DX2                !
 ! A173  L(68,70,78,1,-2)      172.9357         estimate D2E/DX2                !
 ! A174  L(77,80,78,13,-2)     190.2498         estimate D2E/DX2                !
 ! A175  L(77,82,81,44,-2)     181.2774         estimate D2E/DX2                !
 ! A176  L(75,86,84,20,-2)     173.1888         estimate D2E/DX2                !
 ! D1    D(3,1,2,6)            178.3218         estimate D2E/DX2                !
 ! D2    D(3,1,2,7)            -59.48           estimate D2E/DX2                !
 ! D3    D(3,1,2,8)             56.8458         estimate D2E/DX2                !
 ! D4    D(4,1,2,6)            -61.3923         estimate D2E/DX2                !
 ! D5    D(4,1,2,7)             60.806          estimate D2E/DX2                !
 ! D6    D(4,1,2,8)            177.1317         estimate D2E/DX2                !
 ! D7    D(5,1,2,6)             58.4015         estimate D2E/DX2                !
 ! D8    D(5,1,2,7)           -179.4002         estimate D2E/DX2                !
 ! D9    D(5,1,2,8)            -63.0745         estimate D2E/DX2                !
 ! D10   D(1,2,6,9)           -173.4376         estimate D2E/DX2                !
 ! D11   D(1,2,6,10)           -57.059          estimate D2E/DX2                !
 ! D12   D(1,2,6,32)            60.171          estimate D2E/DX2                !
 ! D13   D(7,2,6,9)             63.9645         estimate D2E/DX2                !
 ! D14   D(7,2,6,10)          -179.6569         estimate D2E/DX2                !
 ! D15   D(7,2,6,32)           -62.4269         estimate D2E/DX2                !
 ! D16   D(8,2,6,9)            -51.3197         estimate D2E/DX2                !
 ! D17   D(8,2,6,10)            65.0588         estimate D2E/DX2                !
 ! D18   D(8,2,6,32)          -177.7111         estimate D2E/DX2                !
 ! D19   D(2,6,9,11)           -55.4348         estimate D2E/DX2                !
 ! D20   D(2,6,9,12)            58.6913         estimate D2E/DX2                !
 ! D21   D(2,6,9,13)           179.7493         estimate D2E/DX2                !
 ! D22   D(10,6,9,11)         -172.0362         estimate D2E/DX2                !
 ! D23   D(10,6,9,12)          -57.9102         estimate D2E/DX2                !
 ! D24   D(10,6,9,13)           63.1479         estimate D2E/DX2                !
 ! D25   D(32,6,9,11)           70.4346         estimate D2E/DX2                !
 ! D26   D(32,6,9,12)         -175.4393         estimate D2E/DX2                !
 ! D27   D(32,6,9,13)          -54.3813         estimate D2E/DX2                !
 ! D28   D(2,6,32,33)         -115.7456         estimate D2E/DX2                !
 ! D29   D(2,6,32,34)           67.4031         estimate D2E/DX2                !
 ! D30   D(9,6,32,33)          119.2632         estimate D2E/DX2                !
 ! D31   D(9,6,32,34)          -57.5881         estimate D2E/DX2                !
 ! D32   D(10,6,32,33)           1.7167         estimate D2E/DX2                !
 ! D33   D(10,6,32,34)        -175.1346         estimate D2E/DX2                !
 ! D34   D(6,9,13,14)         -153.8574         estimate D2E/DX2                !
 ! D35   D(6,9,13,15)          -37.0973         estimate D2E/DX2                !
 ! D36   D(6,9,13,22)           81.4063         estimate D2E/DX2                !
 ! D37   D(11,9,13,14)          81.4003         estimate D2E/DX2                !
 ! D38   D(11,9,13,15)        -161.8396         estimate D2E/DX2                !
 ! D39   D(11,9,13,22)         -43.336          estimate D2E/DX2                !
 ! D40   D(12,9,13,14)         -33.4616         estimate D2E/DX2                !
 ! D41   D(12,9,13,15)          83.2984         estimate D2E/DX2                !
 ! D42   D(12,9,13,22)        -158.1979         estimate D2E/DX2                !
 ! D43   D(9,13,14,16)         -59.918          estimate D2E/DX2                !
 ! D44   D(9,13,14,17)          55.201          estimate D2E/DX2                !
 ! D45   D(9,13,14,18)         177.0915         estimate D2E/DX2                !
 ! D46   D(15,13,14,16)       -177.0247         estimate D2E/DX2                !
 ! D47   D(15,13,14,17)        -61.9057         estimate D2E/DX2                !
 ! D48   D(15,13,14,18)         59.9849         estimate D2E/DX2                !
 ! D49   D(22,13,14,16)         66.2788         estimate D2E/DX2                !
 ! D50   D(22,13,14,17)       -178.6022         estimate D2E/DX2                !
 ! D51   D(22,13,14,18)        -56.7117         estimate D2E/DX2                !
 ! D52   D(9,13,22,23)        -121.8468         estimate D2E/DX2                !
 ! D53   D(9,13,22,24)          58.0163         estimate D2E/DX2                !
 ! D54   D(14,13,22,23)        113.6766         estimate D2E/DX2                !
 ! D55   D(14,13,22,24)        -66.4603         estimate D2E/DX2                !
 ! D56   D(15,13,22,23)         -3.0206         estimate D2E/DX2                !
 ! D57   D(15,13,22,24)        176.8426         estimate D2E/DX2                !
 ! D58   D(13,14,18,19)       -176.8369         estimate D2E/DX2                !
 ! D59   D(13,14,18,20)        -56.9947         estimate D2E/DX2                !
 ! D60   D(13,14,18,21)         62.7697         estimate D2E/DX2                !
 ! D61   D(16,14,18,19)         60.5883         estimate D2E/DX2                !
 ! D62   D(16,14,18,20)       -179.5695         estimate D2E/DX2                !
 ! D63   D(16,14,18,21)        -59.8052         estimate D2E/DX2                !
 ! D64   D(17,14,18,19)        -55.6396         estimate D2E/DX2                !
 ! D65   D(17,14,18,20)         64.2026         estimate D2E/DX2                !
 ! D66   D(17,14,18,21)       -176.0331         estimate D2E/DX2                !
 ! D67   D(13,22,23,25)        178.8393         estimate D2E/DX2                !
 ! D68   D(13,22,23,26)          1.0737         estimate D2E/DX2                !
 ! D69   D(24,22,23,25)         -1.0278         estimate D2E/DX2                !
 ! D70   D(24,22,23,26)       -178.7933         estimate D2E/DX2                !
 ! D71   D(13,22,24,27)       -178.4068         estimate D2E/DX2                !
 ! D72   D(13,22,24,28)         -0.4633         estimate D2E/DX2                !
 ! D73   D(23,22,24,27)          1.4607         estimate D2E/DX2                !
 ! D74   D(23,22,24,28)        179.4043         estimate D2E/DX2                !
 ! D75   D(22,23,25,29)          0.6425         estimate D2E/DX2                !
 ! D76   D(22,23,25,30)       -177.4434         estimate D2E/DX2                !
 ! D77   D(26,23,25,29)        178.4095         estimate D2E/DX2                !
 ! D78   D(26,23,25,30)          0.3236         estimate D2E/DX2                !
 ! D79   D(22,24,27,29)         -1.5178         estimate D2E/DX2                !
 ! D80   D(22,24,27,31)        176.5989         estimate D2E/DX2                !
 ! D81   D(28,24,27,29)       -179.4786         estimate D2E/DX2                !
 ! D82   D(28,24,27,31)         -1.362          estimate D2E/DX2                !
 ! D83   D(23,25,29,27)         -0.6383         estimate D2E/DX2                !
 ! D84   D(23,25,29,45)       -177.5178         estimate D2E/DX2                !
 ! D85   D(30,25,29,27)        177.4662         estimate D2E/DX2                !
 ! D86   D(30,25,29,45)          0.5867         estimate D2E/DX2                !
 ! D87   D(24,27,29,25)          1.0724         estimate D2E/DX2                !
 ! D88   D(24,27,29,45)        177.8698         estimate D2E/DX2                !
 ! D89   D(31,27,29,25)       -177.0393         estimate D2E/DX2                !
 ! D90   D(31,27,29,45)         -0.242          estimate D2E/DX2                !
 ! D91   D(25,29,45,46)         21.9729         estimate D2E/DX2                !
 ! D92   D(25,29,45,47)        141.9686         estimate D2E/DX2                !
 ! D93   D(25,29,45,73)        -97.1274         estimate D2E/DX2                !
 ! D94   D(27,29,45,46)       -154.7856         estimate D2E/DX2                !
 ! D95   D(27,29,45,47)        -34.7899         estimate D2E/DX2                !
 ! D96   D(27,29,45,73)         86.1141         estimate D2E/DX2                !
 ! D97   D(6,32,33,35)        -174.8186         estimate D2E/DX2                !
 ! D98   D(6,32,33,36)           2.9294         estimate D2E/DX2                !
 ! D99   D(34,32,33,35)          2.1176         estimate D2E/DX2                !
 ! D100  D(34,32,33,36)        179.8656         estimate D2E/DX2                !
 ! D101  D(6,32,34,37)         173.4986         estimate D2E/DX2                !
 ! D102  D(6,32,34,38)          -2.1486         estimate D2E/DX2                !
 ! D103  D(33,32,34,37)         -3.4364         estimate D2E/DX2                !
 ! D104  D(33,32,34,38)       -179.0837         estimate D2E/DX2                !
 ! D105  D(32,33,35,39)          0.2765         estimate D2E/DX2                !
 ! D106  D(32,33,35,40)        177.1469         estimate D2E/DX2                !
 ! D107  D(36,33,35,39)       -177.4695         estimate D2E/DX2                !
 ! D108  D(36,33,35,40)         -0.5991         estimate D2E/DX2                !
 ! D109  D(32,34,37,39)          2.3528         estimate D2E/DX2                !
 ! D110  D(32,34,37,41)       -174.0727         estimate D2E/DX2                !
 ! D111  D(38,34,37,39)        178.0354         estimate D2E/DX2                !
 ! D112  D(38,34,37,41)          1.6099         estimate D2E/DX2                !
 ! D113  D(33,35,39,37)         -1.4109         estimate D2E/DX2                !
 ! D114  D(33,35,39,42)        172.6925         estimate D2E/DX2                !
 ! D115  D(40,35,39,37)       -178.2847         estimate D2E/DX2                !
 ! D116  D(40,35,39,42)         -4.1813         estimate D2E/DX2                !
 ! D117  D(34,37,39,35)          0.114          estimate D2E/DX2                !
 ! D118  D(34,37,39,42)       -173.9637         estimate D2E/DX2                !
 ! D119  D(41,37,39,35)        176.5655         estimate D2E/DX2                !
 ! D120  D(41,37,39,42)          2.4878         estimate D2E/DX2                !
 ! D121  D(35,39,42,43)       -138.5124         estimate D2E/DX2                !
 ! D122  D(35,39,42,44)        -19.721          estimate D2E/DX2                !
 ! D123  D(35,39,42,72)         99.7044         estimate D2E/DX2                !
 ! D124  D(37,39,42,43)         35.4678         estimate D2E/DX2                !
 ! D125  D(37,39,42,44)        154.2592         estimate D2E/DX2                !
 ! D126  D(37,39,42,72)        -86.3154         estimate D2E/DX2                !
 ! D127  D(39,42,44,82)       -144.5036         estimate D2E/DX2                !
 ! D128  D(43,42,44,82)        -22.1525         estimate D2E/DX2                !
 ! D129  D(72,42,44,82)         89.9263         estimate D2E/DX2                !
 ! D130  D(39,42,72,48)        174.2916         estimate D2E/DX2                !
 ! D131  D(39,42,72,52)         55.1168         estimate D2E/DX2                !
 ! D132  D(39,42,72,56)        -66.8943         estimate D2E/DX2                !
 ! D133  D(43,42,72,48)         49.2154         estimate D2E/DX2                !
 ! D134  D(43,42,72,52)        -69.9594         estimate D2E/DX2                !
 ! D135  D(43,42,72,56)        168.0295         estimate D2E/DX2                !
 ! D136  D(44,42,72,48)        -63.0378         estimate D2E/DX2                !
 ! D137  D(44,42,72,52)        177.7875         estimate D2E/DX2                !
 ! D138  D(44,42,72,56)         55.7764         estimate D2E/DX2                !
 ! D139  D(42,44,82,77)         32.1897         estimate D2E/DX2                !
 ! D140  D(42,44,82,81)       -149.0877         estimate D2E/DX2                !
 ! D141  D(29,45,77,74)        159.0819         estimate D2E/DX2                !
 ! D142  D(29,45,77,80)        -95.2097         estimate D2E/DX2                !
 ! D143  D(29,45,77,82)         -8.4555         estimate D2E/DX2                !
 ! D144  D(47,45,77,74)         39.8859         estimate D2E/DX2                !
 ! D145  D(47,45,77,80)        145.5943         estimate D2E/DX2                !
 ! D146  D(47,45,77,82)       -127.6515         estimate D2E/DX2                !
 ! D147  D(73,45,77,74)        -73.7588         estimate D2E/DX2                !
 ! D148  D(73,45,77,80)         31.9496         estimate D2E/DX2                !
 ! D149  D(73,45,77,82)        118.7038         estimate D2E/DX2                !
 ! D150  D(29,45,73,60)        177.1343         estimate D2E/DX2                !
 ! D151  D(29,45,73,64)        -63.9988         estimate D2E/DX2                !
 ! D152  D(29,45,73,68)         58.0892         estimate D2E/DX2                !
 ! D153  D(46,45,73,60)         56.1449         estimate D2E/DX2                !
 ! D154  D(46,45,73,64)        175.0118         estimate D2E/DX2                !
 ! D155  D(46,45,73,68)        -62.9002         estimate D2E/DX2                !
 ! D156  D(47,45,73,60)        -58.9038         estimate D2E/DX2                !
 ! D157  D(47,45,73,64)         59.9631         estimate D2E/DX2                !
 ! D158  D(47,45,73,68)       -177.9489         estimate D2E/DX2                !
 ! D159  D(49,48,50,75)       -171.3169         estimate D2E/DX2                !
 ! D160  D(51,48,50,75)        -48.0581         estimate D2E/DX2                !
 ! D161  D(72,48,50,75)         69.9687         estimate D2E/DX2                !
 ! D162  D(49,48,72,42)        179.9083         estimate D2E/DX2                !
 ! D163  D(49,48,72,52)        -59.2711         estimate D2E/DX2                !
 ! D164  D(49,48,72,56)         60.8177         estimate D2E/DX2                !
 ! D165  D(50,48,72,42)        -59.0262         estimate D2E/DX2                !
 ! D166  D(50,48,72,52)         61.7944         estimate D2E/DX2                !
 ! D167  D(50,48,72,56)       -178.1168         estimate D2E/DX2                !
 ! D168  D(51,48,72,42)         59.6988         estimate D2E/DX2                !
 ! D169  D(51,48,72,52)       -179.4806         estimate D2E/DX2                !
 ! D170  D(51,48,72,56)        -59.3919         estimate D2E/DX2                !
 ! D171  D(48,50,75,74)         40.579          estimate D2E/DX2                !
 ! D172  D(48,50,75,86)        -91.0921         estimate D2E/DX2                !
 ! D173  D(48,50,75,89)       -158.117          estimate D2E/DX2                !
 ! D174  D(53,52,72,42)        -66.2429         estimate D2E/DX2                !
 ! D175  D(53,52,72,48)        175.3654         estimate D2E/DX2                !
 ! D176  D(53,52,72,56)         55.6601         estimate D2E/DX2                !
 ! D177  D(54,52,72,42)         53.7108         estimate D2E/DX2                !
 ! D178  D(54,52,72,48)        -64.6809         estimate D2E/DX2                !
 ! D179  D(54,52,72,56)        175.6138         estimate D2E/DX2                !
 ! D180  D(55,52,72,42)        174.144          estimate D2E/DX2                !
 ! D181  D(55,52,72,48)         55.7523         estimate D2E/DX2                !
 ! D182  D(55,52,72,56)        -63.953          estimate D2E/DX2                !
 ! D183  D(57,56,72,42)        -59.4719         estimate D2E/DX2                !
 ! D184  D(57,56,72,48)         58.2275         estimate D2E/DX2                !
 ! D185  D(57,56,72,52)        177.635          estimate D2E/DX2                !
 ! D186  D(58,56,72,42)         60.646          estimate D2E/DX2                !
 ! D187  D(58,56,72,48)        178.3454         estimate D2E/DX2                !
 ! D188  D(58,56,72,52)        -62.2471         estimate D2E/DX2                !
 ! D189  D(59,56,72,42)       -179.1579         estimate D2E/DX2                !
 ! D190  D(59,56,72,48)        -61.4585         estimate D2E/DX2                !
 ! D191  D(59,56,72,52)         57.949          estimate D2E/DX2                !
 ! D192  D(61,60,62,76)       -129.3304         estimate D2E/DX2                !
 ! D193  D(63,60,62,76)         -6.8811         estimate D2E/DX2                !
 ! D194  D(73,60,62,76)        111.5118         estimate D2E/DX2                !
 ! D195  D(61,60,73,45)        178.3335         estimate D2E/DX2                !
 ! D196  D(61,60,73,64)         58.3651         estimate D2E/DX2                !
 ! D197  D(61,60,73,68)        -61.3758         estimate D2E/DX2                !
 ! D198  D(62,60,73,45)        -60.6248         estimate D2E/DX2                !
 ! D199  D(62,60,73,64)        179.4068         estimate D2E/DX2                !
 ! D200  D(62,60,73,68)         59.6659         estimate D2E/DX2                !
 ! D201  D(63,60,73,45)         57.3792         estimate D2E/DX2                !
 ! D202  D(63,60,73,64)        -62.5893         estimate D2E/DX2                !
 ! D203  D(63,60,73,68)        177.6699         estimate D2E/DX2                !
 ! D204  D(60,62,76,74)        -69.7902         estimate D2E/DX2                !
 ! D205  D(65,64,73,45)        -56.8234         estimate D2E/DX2                !
 ! D206  D(65,64,73,60)         61.1801         estimate D2E/DX2                !
 ! D207  D(65,64,73,68)       -179.5813         estimate D2E/DX2                !
 ! D208  D(66,64,73,45)         63.6842         estimate D2E/DX2                !
 ! D209  D(66,64,73,60)       -178.3123         estimate D2E/DX2                !
 ! D210  D(66,64,73,68)        -59.0737         estimate D2E/DX2                !
 ! D211  D(67,64,73,45)       -176.3143         estimate D2E/DX2                !
 ! D212  D(67,64,73,60)        -58.3109         estimate D2E/DX2                !
 ! D213  D(67,64,73,68)         60.9278         estimate D2E/DX2                !
 ! D214  D(69,68,78,79)       -178.2061         estimate D2E/DX2                !
 ! D215  D(69,68,78,80)         81.2368         estimate D2E/DX2                !
 ! D216  D(71,68,78,79)        -54.0883         estimate D2E/DX2                !
 ! D217  D(71,68,78,80)       -154.6454         estimate D2E/DX2                !
 ! D218  D(73,68,78,79)         60.9307         estimate D2E/DX2                !
 ! D219  D(73,68,78,80)        -39.6264         estimate D2E/DX2                !
 ! D220  D(69,68,73,45)        -61.1887         estimate D2E/DX2                !
 ! D221  D(69,68,73,60)       -179.36           estimate D2E/DX2                !
 ! D222  D(69,68,73,64)         61.4174         estimate D2E/DX2                !
 ! D223  D(70,68,73,45)         60.3878         estimate D2E/DX2                !
 ! D224  D(70,68,73,60)        -57.7835         estimate D2E/DX2                !
 ! D225  D(70,68,73,64)       -177.0061         estimate D2E/DX2                !
 ! D226  D(71,68,73,45)        179.471          estimate D2E/DX2                !
 ! D227  D(71,68,73,60)         61.2997         estimate D2E/DX2                !
 ! D228  D(71,68,73,64)        -57.9229         estimate D2E/DX2                !
 ! D229  D(76,74,75,50)        128.5765         estimate D2E/DX2                !
 ! D230  D(76,74,75,86)       -133.9682         estimate D2E/DX2                !
 ! D231  D(76,74,75,89)        -39.689          estimate D2E/DX2                !
 ! D232  D(77,74,75,50)        -54.8316         estimate D2E/DX2                !
 ! D233  D(77,74,75,86)         42.6236         estimate D2E/DX2                !
 ! D234  D(77,74,75,89)        136.9028         estimate D2E/DX2                !
 ! D235  D(75,74,76,62)         94.8027         estimate D2E/DX2                !
 ! D236  D(77,74,76,62)        -81.6146         estimate D2E/DX2                !
 ! D237  D(75,74,77,46)        -78.4004         estimate D2E/DX2                !
 ! D238  D(75,74,77,80)       -161.0069         estimate D2E/DX2                !
 ! D239  D(75,74,77,82)         96.7294         estimate D2E/DX2                !
 ! D240  D(76,74,77,46)         98.1957         estimate D2E/DX2                !
 ! D241  D(76,74,77,80)         15.5892         estimate D2E/DX2                !
 ! D242  D(76,74,77,82)        -86.6746         estimate D2E/DX2                !
 ! D243  D(50,75,84,85)       -131.8351         estimate D2E/DX2                !
 ! D244  D(74,75,84,85)        121.5379         estimate D2E/DX2                !
 ! D245  D(89,75,84,85)         15.3013         estimate D2E/DX2                !
 ! D246  D(50,75,89,87)         82.3131         estimate D2E/DX2                !
 ! D247  D(74,75,89,87)       -117.3987         estimate D2E/DX2                !
 ! D248  D(86,75,89,87)         12.7122         estimate D2E/DX2                !
 ! D249  D(46,77,78,70)          4.6525         estimate D2E/DX2                !
 ! D250  D(46,77,78,79)       -104.2954         estimate D2E/DX2                !
 ! D251  D(74,77,78,70)         86.0409         estimate D2E/DX2                !
 ! D252  D(74,77,78,79)        -22.9071         estimate D2E/DX2                !
 ! D253  D(82,77,78,70)       -145.5326         estimate D2E/DX2                !
 ! D254  D(82,77,78,79)        105.5195         estimate D2E/DX2                !
 ! D255  D(46,77,82,44)         52.3131         estimate D2E/DX2                !
 ! D256  D(74,77,82,44)       -117.9413         estimate D2E/DX2                !
 ! D257  D(80,77,82,44)        132.6056         estimate D2E/DX2                !
 ! D258  D(83,81,82,44)       -152.5182         estimate D2E/DX2                !
 ! D259  D(88,87,89,75)       -157.2059         estimate D2E/DX2                !
 --------------------------------------------------------------------------------
 Trust Radius=3.00D-01 FncErr=1.00D-07 GrdErr=1.00D-06 EigMax=2.50D+02 EigMin=1.00D-04
 Number of steps in this run=    534 maximum allowed number of steps=    534.
 GradGradGradGradGradGradGradGradGradGradGradGradGradGradGradGradGradGrad

 Leave Link  103 at Sat Mar 16 16:07:06 2024, MaxMem=  1744830464 cpu:               0.9 elap:               0.2
 (Enter /packages/apps/gaussian/g16/g16/l202.exe)
 Stoichiometry    C28H52N2O7
 Framework group  C1[X(C28H52N2O7)]
 Deg. of freedom   261
 Full point group                 C1      NOp   1
 Largest Abelian subgroup         C1      NOp   1
 Largest concise Abelian subgroup C1      NOp   1
                         Standard orientation:                         
 ---------------------------------------------------------------------
 Center     Atomic      Atomic             Coordinates (Angstroms)
 Number     Number       Type             X           Y           Z
 ---------------------------------------------------------------------
      1          6           0        5.829048    2.803253   -0.836532
      2          6           0        5.645328    1.322046   -1.143539
      3          1           0        6.458077    3.283782   -1.585774
      4          1           0        4.870841    3.323475   -0.817423
      5          1           0        6.302196    2.944179    0.137334
      6          6           0        4.799954    0.578220   -0.099320
      7          1           0        5.180368    1.204420   -2.126408
      8          1           0        6.622542    0.836701   -1.206841
      9          6           0        4.799368   -0.931996   -0.392378
     10          1           0        5.283065    0.717045    0.873516
     11          1           0        4.454882   -1.104952   -1.415557
     12          1           0        5.840789   -1.262770   -0.371031
     13          6           0        3.992521   -1.812632    0.581543
     14          6           0        4.563011   -3.241510    0.605021
     15          1           0        4.114733   -1.397849    1.587430
     16          1           0        4.503972   -3.665693   -0.401678
     17          1           0        5.626290   -3.179929    0.848724
     18          6           0        3.868754   -4.167287    1.596364
     19          1           0        4.345036   -5.147540    1.613761
     20          1           0        3.910419   -3.756925    2.607267
     21          1           0        2.818129   -4.307170    1.341141
     22          6           0        2.504827   -1.832893    0.280985
     23          6           0        1.572586   -1.434389    1.230972
     24          6           0        2.032209   -2.250663   -0.961616
     25          6           0        0.214955   -1.430114    0.948917
     26          1           0        1.914283   -1.086812    2.197230
     27          6           0        0.679312   -2.239834   -1.251135
     28          1           0        2.731402   -2.558907   -1.729068
     29          6           0       -0.251660   -1.839815   -0.295638
     30          1           0       -0.493461   -1.076863    1.688466
     31          1           0        0.344920   -2.517236   -2.243109
     32          6           0        3.405563    1.154550    0.011316
     33          6           0        2.974068    1.754898    1.186365
     34          6           0        2.498147    1.039712   -1.039853
     35          6           0        1.662688    2.187883    1.325233
     36          1           0        3.660707    1.853564    2.018225
     37          6           0        1.184304    1.443652   -0.900506
     38          1           0        2.803311    0.562526   -1.962252
     39          6           0        0.749397    2.024493    0.291071
     40          1           0        1.334355    2.611596    2.266727
     41          1           0        0.470478    1.258925   -1.694755
     42          6           0       -0.699619    2.343232    0.503838
     43          1           0       -1.354624    1.607493    0.046036
     44          1           0       -0.945223    2.352587    1.562635
     45          6           0       -1.719978   -1.772658   -0.594117
     46          1           0       -2.192493   -1.051854    0.072417
     47          1           0       -1.908567   -1.465163   -1.620471
     48          6           0       -2.645568    3.770122    0.157862
     49          1           0       -2.979324    4.737200   -0.212967
     50          1           0       -3.100979    2.946999   -0.397469
     51          1           0       -2.869730    3.660473    1.216200
     52          6           0       -0.838461    3.859562   -1.463784
     53          1           0        0.240102    3.890311   -1.587335
     54          1           0       -1.250495    3.014480   -2.013930
     55          1           0       -1.278939    4.793483   -1.805053
     56          6           0       -0.517587    4.781512    0.765042
     57          1           0       -0.801841    4.663359    1.807673
     58          1           0        0.561539    4.708831    0.658287
     59          1           0       -0.866682    5.740399    0.389247
     60          6           0       -3.923625   -2.810326   -0.673138
     61          1           0       -4.466202   -3.747374   -0.566238
     62          1           0       -4.293271   -2.061451    0.028745
     63          1           0       -4.021283   -2.408262   -1.680283
     64          6           0       -1.991795   -4.110480   -1.352320
     65          1           0       -2.098466   -3.727809   -2.364336
     66          1           0       -0.950249   -4.335300   -1.142999
     67          1           0       -2.595377   -5.006530   -1.231196
     68          6           0       -2.330520   -3.578651    0.996701
     69          1           0       -1.279124   -3.764312    1.197340
     70          1           0       -2.740193   -2.832260    1.682819
     71          1           0       -2.894208   -4.505359    1.082116
     72          7           0       -1.158485    3.697916   -0.019385
     73          7           0       -2.475831   -3.081399   -0.400955
     74          6           0       -3.933614    0.466693    0.233967
     75          8           0       -3.651768    1.000690   -0.924075
     76          8           0       -5.011002   -0.128555    0.437851
     77          8           0       -2.997398    0.528261    1.150365
     78          8           0       -3.753328   -1.408488    2.810890
     79          1           0       -4.671314   -1.385602    2.528480
     80          1           0       -3.405040   -0.649895    2.277710
     81          8           0       -2.643426    2.361128    3.021522
     82          1           0       -2.870179    1.659936    2.358182
     83          1           0       -3.079992    2.090479    3.827641
     84          8           0       -1.594665    0.900299   -2.547537
     85          1           0       -2.096984    0.559716   -3.291697
     86          1           0       -2.289542    0.943060   -1.838230
     87          8           0       -4.182753   -0.543924   -2.999478
     88          1           0       -5.070544   -0.448848   -3.340441
     89          1           0       -4.154865    0.037262   -2.190669
 ---------------------------------------------------------------------
 Rotational constants (GHZ):           0.1241375           0.0806123           0.0604074
 Leave Link  202 at Sat Mar 16 16:07:06 2024, MaxMem=  1744830464 cpu:               1.3 elap:               0.2
 (Enter /packages/apps/gaussian/g16/g16/l301.exe)
 Standard basis: 6-311+G(2d,2p) (5D, 7F)
 Ernie: Thresh=  0.10000D-02 Tol=  0.10000D-05 Strict=F.
 There are  1541 symmetry adapted cartesian basis functions of A   symmetry.
 There are  1467 symmetry adapted basis functions of A   symmetry.
  1467 basis functions,  2126 primitive gaussians,  1541 cartesian basis functions
   145 alpha electrons      145 beta electrons
       nuclear repulsion energy      4864.7180719843 Hartrees.
 IExCor= 4639 DFT=T Ex+Corr=wB97XD ExCW=0 ScaHFX=  1.000000
 ScaDFX=  1.000000  1.000000  1.000000  1.000000 ScalE2=  1.000000  1.000000
 IRadAn=      5 IRanWt=     -1 IRanGd=            0 ICorTp=0 IEmpDi=121
 HFx  wShort=  0.000000 wLong=  0.200000 cFull=  0.222036 cShort=  0.000000 cLong=  0.777964
 DFx  wShort=  0.000000 wLong=  0.200000 cFull=  0.000000 cShort=  0.000000 cLong=  1.000000
 NAtoms=   89 NActive=   89 NUniq=   89 SFac= 1.00D+00 NAtFMM=   60 NAOKFM=T Big=T
 Integral buffers will be    131072 words long.
 Raffenetti 2 integral format.
 Two-electron integral symmetry is turned on.
 R6Disp:  Grimme-D2 Dispersion energy=       -0.1068606494 Hartrees.
 Nuclear repulsion after empirical dispersion term =     4864.6112113349 Hartrees.
 Leave Link  301 at Sat Mar 16 16:07:07 2024, MaxMem=  1744830464 cpu:               2.4 elap:               0.3
 (Enter /packages/apps/gaussian/g16/g16/l302.exe)
 NPDir=0 NMtPBC=     1 NCelOv=     1 NCel=       1 NClECP=     1 NCelD=      1
         NCelK=      1 NCelE2=     1 NClLst=     1 CellRange=     0.0.
 One-electron integrals computed using PRISM.
 One-electron integral symmetry used in STVInt
 NBasis=  1467 RedAO= T EigKep=  1.10D-06  NBF=  1467
 NBsUse=  1457 1.00D-06 EigRej=  9.42D-07 NBFU=  1457
 Precomputing XC quadrature grid using
 IXCGrd= 4 IRadAn=           5 IRanWt=          -1 IRanGd=           0 AccXCQ= 0.00D+00.
 Generated NRdTot=       0 NPtTot=           0 NUsed=           0 NTot=          32
 NSgBfM=  1434  1418  1419  1423  1434 MxSgAt=    89 MxSgA2=    89.
 Leave Link  302 at Sat Mar 16 16:07:15 2024, MaxMem=  1744830464 cpu:             115.1 elap:               7.3
 (Enter /packages/apps/gaussian/g16/g16/l303.exe)
 DipDrv:  MaxL=1.
 Leave Link  303 at Sat Mar 16 16:07:17 2024, MaxMem=  1744830464 cpu:               7.7 elap:               1.2
 (Enter /packages/apps/gaussian/g16/g16/l401.exe)
 ExpMin= 4.38D-02 ExpMax= 8.59D+03 ExpMxC= 1.30D+03 IAcc=3 IRadAn=         5 AccDes= 0.00D+00
 Harris functional with IExCor= 4639 and IRadAn=       5 diagonalized for initial guess.
 HarFok:  IExCor= 4639 AccDes= 0.00D+00 IRadAn=         5 IDoV= 1 UseB2=F ITyADJ=14
 ICtDFT=  3500011 ScaDFX=  1.000000  1.000000  1.000000  1.000000
 FoFCou: FMM=F IPFlag=           0 FMFlag=      100000 FMFlg1=        2001
         NFxFlg=           0 DoJE=T BraDBF=F KetDBF=T FulRan=T
         wScrn=  0.000000 ICntrl=       500 IOpCl=  0 I1Cent=   200000004 NGrid=           0
         NMat0=    1 NMatS0=      1 NMatT0=    0 NMatD0=    1 NMtDS0=    0 NMtDT0=    0
 Petite list used in FoFCou.
 Harris En= -1658.63644668885    
 JPrj=0 DoOrth=F DoCkMO=F.
 Leave Link  401 at Sat Mar 16 16:07:29 2024, MaxMem=  1744830464 cpu:             212.8 elap:              11.8
 (Enter /packages/apps/gaussian/g16/g16/l502.exe)
 Integral symmetry usage will be decided dynamically.
 Closed shell SCF:
 Using DIIS extrapolation, IDIIS=  1040.
 NGot=  1744830464 LenX=  1740036119 LenY=  1737659897
 Requested convergence on RMS density matrix=1.00D-08 within 128 cycles.
 Requested convergence on MAX density matrix=1.00D-06.
 Requested convergence on             energy=1.00D-06.
 No special actions if energy rises.
 Fock matrices will be formed incrementally for  20 cycles.

 Cycle   1  Pass 1  IDiag  1:
 FoFJK:  IHMeth= 1 ICntrl=       0 DoSepK=T KAlg= 0 I1Cent=           0 FoldK=F
 IRaf=         1 NMat=       1 IRICut=       1 DoRegI=T DoRafI=F ISym2E= 0 IDoP0=0 IntGTp=1.
 FoFCou: FMM=T IPFlag=           0 FMFlag=      100000 FMFlg1=        2001
         NFxFlg=           0 DoJE=T BraDBF=F KetDBF=F FulRan=T
         wScrn=  0.000000 ICntrl=       500 IOpCl=  0 I1Cent=           0 NGrid=           0
         NMat0=    1 NMatS0=      1 NMatT0=    0 NMatD0=    1 NMtDS0=    0 NMtDT0=    0
 Symmetry not used in FoFCou.
 FMM levels:  10  Number of levels for PrismC:   9
 E= -1733.88113327344    
 DIIS: error= 4.99D-02 at cycle   1 NSaved=   1.
 NSaved= 1 IEnMin= 1 EnMin= -1733.88113327344     IErMin= 1 ErrMin= 4.99D-02
 ErrMax= 4.99D-02  0.00D+00 EMaxC= 1.00D-01 BMatC= 3.70D+00 BMatP= 3.70D+00
 IDIUse=3 WtCom= 5.01D-01 WtEn= 4.99D-01
 Coeff-Com:  0.100D+01
 Coeff-En:   0.100D+01
 Coeff:      0.100D+01
 Gap=     0.338 Goal=   None    Shift=    0.000
 GapD=    0.338 DampG=1.000 DampE=0.500 DampFc=0.5000 IDamp=-1.
 Damping current iteration by 5.00D-01
 RMSDP=4.33D-03 MaxDP=8.53D-01              OVMax= 1.29D-01

 Cycle   2  Pass 1  IDiag  1:
 RMSU=  1.43D-03    CP:  8.72D-01
 E= -1734.15128494948     Delta-E=       -0.270151676041 Rises=F Damp=T
 DIIS: error= 2.45D-02 at cycle   2 NSaved=   2.
 NSaved= 2 IEnMin= 2 EnMin= -1734.15128494948     IErMin= 2 ErrMin= 2.45D-02
 ErrMax= 2.45D-02  0.00D+00 EMaxC= 1.00D-01 BMatC= 7.68D-01 BMatP= 3.70D+00
 IDIUse=3 WtCom= 7.55D-01 WtEn= 2.45D-01
 Coeff-Com: -0.587D+00 0.159D+01
 Coeff-En:   0.000D+00 0.100D+01
 Coeff:     -0.443D+00 0.144D+01
 Gap=     0.312 Goal=   None    Shift=    0.000
 RMSDP=2.78D-03 MaxDP=5.19D-01 DE=-2.70D-01 OVMax= 1.03D-01

 Cycle   3  Pass 1  IDiag  1:
 RMSU=  1.25D-03    CP:  6.85D-01  1.50D+00
 E= -1734.31222863722     Delta-E=       -0.160943687745 Rises=F Damp=F
 DIIS: error= 9.82D-03 at cycle   3 NSaved=   3.
 NSaved= 3 IEnMin= 3 EnMin= -1734.31222863722     IErMin= 3 ErrMin= 9.82D-03
 ErrMax= 9.82D-03  0.00D+00 EMaxC= 1.00D-01 BMatC= 1.82D-01 BMatP= 7.68D-01
 IDIUse=3 WtCom= 9.02D-01 WtEn= 9.82D-02
 Coeff-Com: -0.348D+00 0.745D+00 0.603D+00
 Coeff-En:   0.000D+00 0.000D+00 0.100D+01
 Coeff:     -0.314D+00 0.672D+00 0.642D+00
 Gap=     0.288 Goal=   None    Shift=    0.000
 RMSDP=6.39D-04 MaxDP=8.12D-02 DE=-1.61D-01 OVMax= 4.80D-02

 Cycle   4  Pass 1  IDiag  1:
 RMSU=  3.64D-04    CP:  6.96D-01  1.74D+00  7.11D-01
 E= -1734.45268309693     Delta-E=       -0.140454459706 Rises=F Damp=F
 DIIS: error= 1.49D-03 at cycle   4 NSaved=   4.
 NSaved= 4 IEnMin= 4 EnMin= -1734.45268309693     IErMin= 4 ErrMin= 1.49D-03
 ErrMax= 1.49D-03  0.00D+00 EMaxC= 1.00D-01 BMatC= 5.67D-03 BMatP= 1.82D-01
 IDIUse=3 WtCom= 9.85D-01 WtEn= 1.49D-02
 Coeff-Com: -0.116D+00 0.248D+00 0.286D+00 0.582D+00
 Coeff-En:   0.000D+00 0.000D+00 0.000D+00 0.100D+01
 Coeff:     -0.114D+00 0.244D+00 0.282D+00 0.588D+00
 Gap=     0.284 Goal=   None    Shift=    0.000
[...]
 14,-0.00010834,0.00044688,-0.00038112,0.00001387,0.00001588,-0.0000169
 8,-0.00001815,-0.00000470,-0.00000588,0.00000389,-0.00000555,0.0000058
 5,-0.00000544,0.00000600,-0.00000025,0.00003749,0.00002547,-0.00000343
 ,0.00000686,-0.00000445,0.00001122,0.00000467,-0.00000483,-0.00000700,
 0.00000165,0.00000458,-0.00000926,0.00000633,0.00000371,0.00001255,-0.
 00003860,-0.00000705,0.00000549,0.00043350,0.00036235,-0.00084815,0.00
 046834,0.00051449,0.00129334,-0.00045801,-0.00013805,0.00018086,0.0000
 2462,-0.00011467,0.00030838,-0.00003933,-0.00003502,0.00005581,0.00002
 076,0.00000706,-0.00001346,0.00002948,0.00004924,-0.00005209,-0.000004
 90,0.00002537,0.00004139,-0.00000453,-0.00003836,-0.00004633,0.0000056
 4,-0.00000400,-0.00000486,-0.00014676,-0.00069811,0.00016222,-0.000090
 27,0.00062484,-0.00071795,-0.00019398,0.00025005,0.00021015,-0.4766253
 8,0.04370177,-0.19155079,0.48241286,-0.00000318,0.00000080,0.00000005,
 0.00000135,-0.00000333,-0.00000010,-0.00000039,-0.00000021,-0.00000078
 ,0.00000189,-0.00000226,-0.00000051,0.00000022,-0.00000054,0.00000122,
 -0.00000632,0.00000374,-0.00000308,-0.00000151,0.00000153,0.00000122,0
 .00000461,-0.00000071,-0.00000085,0.00000548,0.00000316,0.00000139,0.0
 0000194,-0.00000070,0.00000142,-0.00000143,0.00000096,-0.00000003,0.00
 000285,-0.00000277,-0.00000003,-0.00000080,0.00000027,-0.00000177,-0.0
 0000095,0.00000479,0.00000093,-0.00000032,0.00000037,-0.00000144,0.000
 00012,-0.00000049,-0.00000131,-0.00000029,-0.00000168,0.00000048,0.000
 00347,-0.00000234,0.00000056,0.00000253,-0.00000343,0.00000153,-0.0000
 0079,0.00000017,-0.00000062,-0.00000252,0.00000340,-0.00000069,0.00000
 362,0.00000199,0.00000163,0.00000444,0.00001114,0.00000486,0.00000192,
 -0.00000657,0.00000225,0.00003785,-0.00001719,-0.00000018,0.00000384,0
 .00000454,-0.00000150,0.00000635,-0.00001040,0.00000856,0.00000441,0.0
 0000455,-0.00000131,-0.00005343,-0.00009513,0.00012133,0.00000015,0.00
 000478,-0.00000226,-0.00000544,0.00001553,-0.00000459,-0.00000506,0.00
 000293,0.00000024,0.00000583,-0.00000599,-0.00000183,0.00000316,-0.000
 00282,0.00000617,-0.00000022,-0.00000691,-0.00000606,0.00000337,0.0000
 0105,0.00000175,-0.00000554,-0.00000562,0.00000125,0.00000031,0.000001
 66,-0.00000368,-0.00000479,-0.00000993,0.00000793,-0.00000150,0.000003
 13,-0.00000346,0.00000282,0.00000775,0.00000116,-0.00002974,0.00005769
 ,-0.00001580,-0.00000208,0.00000445,-0.00001061,0.00000775,-0.00000179
 ,-0.00000074,0.00017287,0.00029400,-0.00028565,-0.00001044,-0.00001385
 ,-0.00000480,-0.00021006,-0.00000364,0.00003557,-0.00005260,-0.0000320
 6,0.00000263,-0.00001018,-0.00003435,-0.00001702,-0.00002807,0.0000529
 2,-0.00005789,0.00001604,0.00001511,-0.00000686,0.00000335,-0.00001336
 ,-0.00002581,0.00000890,0.00000809,0.00000970,-0.00004010,0.00003656,-
 0.00001736,-0.00001355,-0.00002909,-0.00000963,-0.00000312,-0.00001809
 ,-0.00000730,-0.00000272,0.00000314,0.00000114,0.00000418,0.00000602,-
 0.00000124,-0.00000189,-0.00000631,-0.00000164,-0.00018678,-0.00063333
 ,0.00039093,0.00002675,-0.00014732,0.00024952,-0.00001719,0.00010406,0
 .00002426,0.00106549,0.00032079,0.00028001,-0.00005705,-0.00000618,-0.
 00000326,0.00006315,0.00008232,0.00000801,-0.00001065,0.00001490,-0.00
 001600,0.00001391,-0.00005090,0.00003930,-0.00007782,-0.00004856,0.000
 01174,-0.00000518,0.00002471,-0.00002769,0.00000057,0.00002242,0.00001
 290,-0.00000205,-0.00002694,0.00002016,0.00003815,-0.00002145,0.000030
 49,-0.00014256,0.00001035,-0.00018027,0.00048810,-0.00003977,-0.000489
 70,0.00047841,-0.00179731,-0.00138059,-0.00016672,-0.00045567,0.000027
 53,-0.00019283,0.00002937,0.00016073,-0.00002214,-0.00011090,-0.000003
 32,0.00000698,0.00004206,0.00001387,0.00002260,0.00008699,-0.00004308,
 0.00000997,-0.00003082,0.00003238,-0.00000016,0.00002477,0.00000057,-0
 .00000384,0.00000674,-0.00000531,-0.00062041,-0.00052866,-0.00001650,0
 .00035352,0.00029337,-0.00046893,0.00007591,0.00023155,0.00023065,0.07
 175645,-0.02430627,0.00914982,-0.04787367,0.02189573,-0.00000117,0.000
 00170,-0.00000392,0.00000021,-0.00000425,0.00000869,0.00000599,0.00000
 393,-0.00000381,-0.00000115,-0.00000474,0.00000369,-0.00000139,-0.0000
 0024,0.00000100,-0.00000960,-0.00000185,-0.00000497,-0.00000382,0.0000
 0061,0.00000007,0.00000679,-0.00000047,-0.00000126,0.00000791,-0.00000
 342,0.00000932,0.00000329,-0.00000003,0.00000093,-0.00000622,-0.000000
 08,0.00000113,0.00001106,-0.00000122,-0.00000026,-0.00001004,-0.000003
 93,-0.00001046,0.00000594,0.00001066,0.00000441,0.00000300,0.00000120,
 0.00000107,-0.00000399,-0.00000040,-0.00000238,0.00000958,-0.00000359,
 0.00000261,-0.00000491,-0.00000183,-0.00000373,0.00000441,-0.00000549,
 0.00000082,-0.00000173,0.00000136,-0.00000105,0.00000285,0.00000653,0.
 00000133,-0.00001040,-0.00000081,-0.00000152,0.00001662,-0.00000594,-0
 .00001237,0.00001038,0.00000443,0.00001428,0.00000904,-0.00000104,-0.0
 0000576,0.00000327,0.00000164,0.00000490,0.00001220,0.00000445,0.00002
 088,0.00001126,-0.00000236,-0.00000421,-0.00001784,0.00001919,-0.00001
 602,-0.00001249,0.00000039,-0.00001064,-0.00001478,0.00000514,0.000009
 15,-0.00000290,0.00000505,-0.00000112,0.00000932,-0.00000368,-0.000005
 50,0.00001006,0.00001334,0.00001912,0.00000332,0.00000206,-0.00000721,
 0.00000303,-0.00000348,0.00000402,0.00001366,0.00000346,-0.00001281,-0
 .00000017,-0.00000826,-0.00000001,0.00000172,0.00002089,0.00000243,-0.
 00000368,-0.00000312,-0.00000037,-0.00005084,-0.00001146,-0.00000536,-
 0.00000517,-0.00001547,0.00000091,-0.00004822,-0.00003230,0.00000228,-
 0.00001167,-0.00000439,-0.00000020,-0.00008293,-0.00010753,0.00006114,
 -0.00001829,0.00002190,0.00004504,-0.00000471,0.00002136,-0.00016854,-
 0.00002207,-0.00002323,0.00000724,0.00000520,0.00001416,-0.00000218,-0
 .00002185,-0.00004933,-0.00001358,-0.00000387,-0.00001318,0.00000176,-
 0.00000188,0.00000709,0.00002708,0.00000737,0.00000028,0.00000210,-0.0
 0000846,-0.00007674,-0.00000298,-0.00000050,0.00002080,0.00001269,-0.0
 0000722,-0.00001644,-0.00001128,-0.00000277,-0.00000334,-0.00000121,0.
 00000443,-0.00000104,0.00000205,-0.00000345,0.00000529,0.00000065,0.00
 002758,0.00032579,-0.00017811,-0.00001161,0.00001871,-0.00004200,-0.00
 008807,0.00008139,-0.00008086,-0.00053408,0.00028670,-0.00026191,0.000
 01576,0.00006840,0.00007518,-0.00001495,0.00003463,0.00001553,0.000018
 73,-0.00002214,-0.00000822,-0.00000765,0.00000416,0.00000975,0.0000602
 0,0.00001448,-0.00006112,0.00001618,-0.00001791,0.00002747,-0.00002488
 ,0.00001127,-0.00000269,-0.00000941,0.00000685,0.00000052,0.00002319,0
 .00002602,-0.00001163,0.00013131,-0.00010065,0.00009276,-0.00200265,-0
 .00146227,0.00063816,0.00127166,-0.00162879,-0.00246667,0.00128077,0.0
 0071050,0.00067859,0.00058531,0.00033902,0.00027378,0.00006653,-0.0000
 5076,0.00012925,-0.00001092,0.00003714,-0.00010300,-0.00004857,0.00004
 005,-0.00007318,0.00005549,0.00011140,0.00009979,-0.00005078,-0.000138
 88,-0.00014127,-0.00000949,-0.00001200,-0.00002227,0.00096992,0.000841
 64,0.00015895,-0.00073059,-0.00090280,0.00039441,0.00001669,-0.0000211
 3,-0.00012368,-0.15288493,-0.00605105,-0.09267649,0.18981913,0.0005799
 6,0.10352038,-0.00000732,0.00000408,-0.00000601,0.00000100,-0.00001664
 ,0.00001073,0.00000991,0.00000554,-0.00000878,-0.00000006,-0.00001324,
 0.00000476,-0.00000100,-0.00000116,0.00000585,-0.00002921,0.00000840,-
 0.00000806,-0.00000818,0.00000395,0.00000434,0.00002067,-0.00000098,-0
 .00000419,0.00002304,0.00000438,0.00001108,0.00001204,-0.00000190,0.00
 000700,-0.00001157,0.00000250,0.00000387,0.00002109,-0.00000976,-0.000
 00063,-0.00001449,-0.00000462,-0.00002104,0.00000376,0.00002214,0.0000
 0448,0.00000159,0.00000377,-0.00000012,-0.00000515,-0.00000168,-0.0000
 0351,0.00001256,-0.00000780,0.00000426,0.00000116,-0.00000798,-0.00000
 335,0.00000900,-0.00001341,0.00000298,-0.00000375,0.00000379,-0.000000
 79,0.00000004,0.00001395,-0.00000077,-0.00001474,0.00000517,0.00000465
 ,0.00003029,-0.00000269,-0.00001598,0.00002373,-0.00001045,0.00000059,
 0.00004622,-0.00003597,-0.00000068,0.00001106,0.00001248,0.00000157,0.
 00003069,-0.00000772,0.00009080,0.00001979,0.00000714,-0.00000793,-0.0
 0011261,-0.00021626,0.00009267,-0.00002439,0.00001861,-0.00002846,-0.0
 0000176,0.00003088,-0.00000486,-0.00000852,0.00000564,-0.00000472,0.00
 003283,-0.00001783,0.00000094,0.00003821,0.00003215,0.00008308,0.00000
 166,-0.00000546,-0.00001487,0.00001385,-0.00000299,0.00001195,0.000001
 61,-0.00000145,-0.00006231,-0.00000381,-0.00000769,-0.00001152,0.00002
 040,0.00002890,0.00002057,-0.00000501,0.00000330,0.00000361,-0.0002176
 3,-0.00003258,-0.00007491,-0.00010359,-0.00003150,-0.00001674,-0.00009
 073,-0.00007250,-0.00007970,0.00001320,0.00001619,-0.00000502,0.000219
 36,0.00036725,-0.00033267,-0.00012240,0.00017858,-0.00023297,-0.000392
 76,0.00068218,0.00021420,0.00008822,0.00013368,0.00003960,0.00005414,0
 .00009265,0.00000916,-0.00017553,-0.00056809,-0.00009549,0.00000969,-0
 .00002564,-0.00002108,-0.00001026,0.00000234,0.00000245,0.00001737,0.0
 0000973,0.00001093,-0.00006121,-0.00029665,-0.00008276,0.00000529,0.00
 005055,0.00003184,-0.00001018,-0.00007207,-0.00003126,0.00000148,-0.00
 000168,0.00000513,0.00001548,0.00000666,0.00000660,-0.00000144,0.00000
 687,-0.00000471,0.00024166,-0.00008325,0.00000358,-0.00002585,-0.00003
 296,-0.00003295,0.00001007,0.00019096,0.00016948,0.00039969,-0.0004021
 4,0.00040522,-0.00011775,-0.00002972,0.00014913,0.00009575,-0.00001160
 ,0.00002588,-0.00000420,0.00003995,-0.00003260,0.00000658,-0.00006557,
 -0.00001004,-0.00016236,-0.00009487,-0.00002036,-0.00001170,0.00003830
 ,-0.00004193,0.00000356,0.00007004,0.00001716,-0.00000494,-0.00005934,
 0.00004259,0.00005375,0.00011367,0.00004804,-0.00002652,-0.00004222,-0
 .00006881,0.00668451,0.00808672,-0.00715315,-0.01130415,0.00020568,0.0
 0942598,-0.00475465,-0.00326471,0.00014371,0.00053206,-0.00146151,0.00
 206195,-0.00023789,-0.00039894,0.00024314,0.00004780,0.00005293,-0.000
 00375,0.00029414,0.00044569,-0.00041509,0.00001710,0.00019864,0.000295
 81,-0.00006403,-0.00027045,-0.00041288,0.00002289,-0.00001573,-0.00003
 096,0.00218918,0.00102325,-0.00079042,-0.00135384,0.00011216,0.0026365
 5,-0.00500429,-0.00333295,-0.00144846,-0.05192832,0.02646206,0.0184805
 2,-0.00576389,-0.02483750,-0.03771161,0.07079250,-0.00001869,0.0000055
 5,-0.00000147,0.00002206,-0.00003691,0.00001637,0.00001031,0.00000114,
 -0.00000837,0.00000532,-0.00001928,0.00000690,-0.00000297,-0.00000227,
 0.00000272,-0.00005133,0.00003433,-0.00001964,-0.00001415,0.00000541,0
 .00000137,0.00003478,0.00000016,-0.00001025,0.00003818,0.00004142,-0.0
 0000316,0.00001423,-0.00000650,0.00000413,-0.00000681,0.00000475,-0.00
 000809,0.00000622,-0.00003304,0.00000210,0.00002241,0.00002381,0.00000
 238,-0.00002471,-0.00000034,0.00000296,-0.00001516,0.00000143,-0.00001
 983,0.00000626,-0.00000591,-0.00000896,-0.00001161,0.00000509,-0.00000
 157,0.00001740,-0.00000695,0.00000759,0.00000231,-0.00000935,0.0000045
 5,-0.00000528,-0.00000192,-0.00000691,-0.00001006,0.00000221,0.0000027
 6,0.00001225,0.00002239,-0.00000377,-0.00004634,-0.00007566,-0.0000476
 6,-0.00002530,-0.00006056,-0.00007051,-0.00020489,0.00005036,0.0001645
 1,-0.00003703,0.00001515,-0.00002980,-0.00000222,-0.00002591,0.0000411
 4,-0.00000112,0.00001999,0.00000431,0.00008468,-0.00002310,-0.00026881
 ,-0.00005774,0.00010576,-0.00004756,0.00004470,0.00001132,-0.00005725,
 -0.00000046,0.00000836,0.00001217,0.00005582,-0.00007360,-0.00001614,0
 .00004108,-0.00000573,0.00006083,0.00005389,-0.00004797,-0.00006627,0.
 00003095,0.00000059,0.00001517,0.00007154,-0.00000677,0.00001847,0.000
 02828,-0.00000989,-0.00003346,-0.00007837,0.00011554,0.00008225,-0.000
 02545,0.00000994,-0.00003369,-0.00010148,0.00004335,-0.00000461,-0.000
 14787,0.00015310,-0.00001552,-0.00067371,-0.00015706,-0.00008353,-0.00
 003349,-0.00001555,-0.00000977,0.00020335,0.00014401,0.00049429,-0.000
 39062,0.00094708,0.00046938,0.00077120,-0.00011597,-0.00007641,-0.0002
 4255,0.00024468,0.00009860,0.00013394,0.00016918,0.00001390,-0.0004578
 7,-0.00139629,-0.00031063,0.00005542,-0.00002964,-0.00004535,-0.000014
 13,-0.00012531,0.00009347,0.00006543,0.00005751,0.00000796,-0.00017262
 ,-0.00001398,0.00007803,-0.00002739,-0.00001160,0.00001002,0.00003363,
 -0.00014590,-0.00012402,-0.00002982,-0.00001212,-0.00001768,0.00006263
 ,0.00005003,0.00001705,-0.00001451,0.00000307,0.00000407,0.00080924,0.
 00007961,0.00084250,-0.00022137,0.00033455,-0.00047789,-0.00041644,0.0
 0079905,0.00090244,0.00050389,-0.00291392,0.00017768,-0.00007263,-0.00
 019134,0.00007792,0.00012629,-0.00005090,-0.00005893,-0.00003735,0.000
 08459,-0.00003781,0.00002783,-0.00006409,-0.00001419,-0.00022750,-0.00
 011399,0.00026312,-0.00004899,0.00007066,-0.00014955,-0.00015203,0.000
 31375,0.00022965,-0.00000512,-0.00005067,0.00000020,0.00021477,0.00007
 775,0.00007971,-0.00013395,-0.00004424,-0.00070341,0.01088206,0.014384
 35,-0.01462981,-0.00003449,-0.00715762,0.01784737,-0.00607025,-0.00621
 841,0.00234980,0.00222515,-0.00360545,0.00819860,-0.00025458,-0.001561
 69,0.00061980,0.00000534,0.00032483,-0.00012719,0.00052913,0.00157124,
 -0.00110863,0.00026191,0.00054507,0.00077001,-0.00025438,-0.00082416,-
 0.00102291,-0.00000393,-0.00001519,-0.00010883,0.00233481,-0.00194214,
 -0.00266025,0.00042868,0.00185489,0.00090995,-0.00612600,0.00102884,0.
 00258151,-0.00369586,-0.14458025,-0.17336605,0.00333489,0.00478930,0.0
 0708805,-0.00291161,0.14325401,-0.00001390,0.00000718,-0.00001105,0.00
 002140,-0.00003316,0.00003884,0.00002045,0.00000885,-0.00001294,0.0000
 0170,-0.00002154,0.00001506,-0.00000700,-0.00000238,0.00000151,-0.0000
 5589,0.00001453,-0.00004237,-0.00001744,0.00000264,-0.00000494,0.00003
 693,0.00000008,-0.00001178,0.00005213,0.00002060,0.00002716,0.00000964
 ,-0.00000316,0.00000204,-0.00001746,0.00000126,-0.00000669,0.00002858,
 -0.00002494,-0.00000221,-0.00000638,-0.00000151,-0.00003376,-0.0000008
 3,0.00002496,0.00001530,-0.00000850,0.00000255,-0.00001465,-0.00000363
 ,-0.00000556,-0.00001382,0.00001252,-0.00000625,0.00000416,0.00000384,
 -0.00000770,-0.00000021,0.00001193,-0.00001813,0.00000495,-0.00000944,
 0.00000069,-0.00000942,-0.00000181,0.00001727,0.00000588,-0.00000994,0
 .00000819,-0.00000911,0.00000719,-0.00007127,-0.00010951,0.00008526,-0
 .00002714,-0.00008543,-0.00011806,0.00004027,0.00018217,-0.00002075,0.
 00001557,-0.00000917,0.00009075,0.00004556,0.00022293,0.00004185,0.000
 00624,-0.00000581,-0.00004374,-0.00027222,-0.00024760,-0.00012305,0.00
 009287,-0.00009403,0.00002519,-0.00004331,-0.00006280,0.00000223,0.000
 03603,0.00002939,0.00005095,-0.00007901,-0.00005389,0.00001481,-0.0000
 1514,-0.00001747,0.00009902,-0.00004850,-0.00011487,0.00003198,-0.0000
 1186,0.00001615,0.00012565,0.00001133,0.00010282,0.00004622,-0.0000351
 5,-0.00001938,-0.00014783,0.00023315,0.00009479,-0.00004497,-0.0000060
 1,-0.00005328,0.00010429,0.00006181,0.00011917,-0.00007562,0.00008575,
 -0.00000147,-0.00107044,-0.00029711,0.00005750,-0.00012197,-0.00006245
 ,-0.00002966,0.00019100,0.00024792,0.00041615,-0.00070466,0.00111269,0
 .00012905,0.00019138,0.00001520,0.00048984,-0.00021520,0.00076366,0.00
 018053,0.00025524,0.00039599,0.00009408,-0.00071885,-0.00251076,-0.000
 21451,0.00002779,-0.00012096,-0.00005297,-0.00003407,-0.00015612,0.000
 33294,0.00007211,0.00004535,-0.00004418,-0.00006167,0.00021442,0.00029
 201,-0.00001657,0.00001754,0.00000175,0.00011162,-0.00014996,-0.000209
 50,-0.00005175,-0.00004188,-0.00004808,0.00010020,0.00006238,0.0000387
 1,-0.00002692,0.00002173,0.00001475,0.00009917,0.00016287,-0.00009321,
 0.00003903,-0.00015020,-0.00016304,-0.00050406,0.00166775,-0.00002376,
 0.00048885,-0.00086440,0.00195865,-0.00006141,-0.00005995,0.00049934,0
 .00019369,-0.00007893,-0.00001275,0.00001907,0.00002409,-0.00011850,0.
 00002083,-0.00008008,-0.00002908,-0.00015263,-0.00010150,0.00009615,-0
 .00000393,0.00003891,-0.00010308,-0.00022432,0.00039485,0.00021459,-0.
 00002363,-0.00005641,0.00000107,0.00024739,0.00018700,0.00004548,0.000
 06991,-0.00019734,-0.00086683,0.00451519,0.01015126,-0.02708407,0.0067
 7765,0.01193778,0.01537327,-0.00594713,-0.00458736,0.00468874,0.004725
 08,-0.00348851,0.00888727,-0.00014411,-0.00186941,0.00117232,0.0000297
 2,0.00049219,-0.00045979,0.00048471,0.00180372,-0.00160671,0.00046733,
 0.00101389,0.00119373,-0.00047772,-0.00142243,-0.00177362,-0.00000476,
 -0.00005076,-0.00016984,0.00071356,-0.00159293,-0.00558897,0.00415718,
 0.00123459,-0.00041400,-0.00622339,0.00044377,0.00801561,-0.02318016,-
 0.15740719,-0.24969032,0.00125296,-0.00834467,-0.00981952,0.01452044,0
 .15123836,0.25458780\\-0.00000012,-0.00000014,-0.00000015,0.00000056,0
 .00000032,0.00000055,0.00000005,-0.00000012,0.00000046,0.00000022,-0.0
 0000011,0.00000032,0.00000008,-0.00000015,0.00000041,-0.00000032,-0.00
 000050,0.00000006,0.00000012,-0.00000002,0.00000019,-0.00000026,0.,0.0
 0000015,-0.00000035,-0.00000002,0.00000050,0.00000007,-0.00000002,0.00
 000025,0.00000017,-0.00000022,0.00000006,0.00000001,-0.00000017,0.0000
 0010,0.00000067,0.,-0.00000002,-0.00000059,-0.00000043,0.00000033,-0.0
 0000015,-0.00000016,-0.00000027,-0.00000003,-0.00000006,0.00000003,-0.
 00000005,-0.00000008,0.00000004,0.00000071,-0.00000035,-0.00000042,-0.
 00000031,0.00000015,0.00000005,-0.00000021,0.00000004,0.00000018,-0.00
 000051,-0.00000013,-0.00000025,0.00000021,0.00000069,0.00000059,0.0000
 0039,-0.00000029,-0.00000039,-0.00000004,-0.00000030,-0.00000046,-0.00
 000055,0.00000012,0.,-0.00000006,-0.00000003,0.00000010,-0.00000047,-0
 .00000041,-0.00000040,-0.00000007,0.00000003,0.,0.00000007,0.00000005,
 -0.00000072,-0.00000015,0.00000002,-0.00000011,0.00000021,0.00000023,0
 .00000021,0.00000047,-0.00000046,-0.00000007,-0.00000072,0.00000008,-0
 .00000004,-0.00000059,0.00000023,-0.00000027,0.00000088,-0.00000014,0.
 00000058,0.00000021,-0.00000011,0.00000047,0.00000016,0.00000004,0.000
 00059,0.00000007,0.00000025,0.00000028,-0.00000052,-0.00000056,-0.0000
 0070,-0.00000011,0.00000010,0.00000042,0.00000024,0.00000034,0.0000002
 6,0.00000033,0.00000015,0.00000059,0.00000021,-0.00000019,-0.00000011,
 -0.00000018,0.00000017,-0.00000023,-0.00000026,-0.00000010,-0.00000026
 ,-0.00000042,0.00000014,0.00000054,0.00000016,0.00000022,-0.00000010,-
 0.00000047,-0.00000001,-0.00000052,0.,0.,0.00000022,0.00000068,0.00000
 051,0.00000017,0.00000002,-0.00000020,0.00000035,0.00000026,-0.0000003
 5,-0.00000011,0.00000011,-0.00000008,0.00000039,0.00000030,0.00000023,
 0.,-0.00000006,0.00000061,0.,0.00000019,0.00000012,-0.00000032,-0.0000
 0013,-0.00000009,0.00000060,0.00000023,0.,0.00000023,0.,0.00000013,0.0
 0000018,-0.00000020,-0.00000115,-0.00000036,0.00000012,0.00000050,-0.0
 0000075,0.00000075,0.00000092,-0.00000137,-0.00000010,0.00000035,-0.00
 000014,-0.00000033,-0.00000017,-0.00000031,0.,0.00000019,-0.00000030,-
 0.00000002,0.,-0.00000007,-0.00000027,-0.00000009,-0.00000027,-0.00000
 025,-0.00000030,-0.00000038,-0.00000013,0.00000013,-0.00000029,-0.0000
 0045,0.,-0.00000056,0.00000011,0.00000013,-0.00000035,0.00000016,-0.00
 000050,0.00000015,-0.00000015,0.00000101,0.00000086,-0.00000033,-0.000
 00092,0.00000137,0.00000049,0.00000032,-0.00000026,-0.00000174,-0.0000
 0022,-0.00000184,0.00000196,0.00000014,0.00000056,-0.00000060,0.000000
 92,0.00000078,0.00000112,-0.00000116,0.00000111,-0.00000044,0.00000012
 ,-0.00000144,0.00000017,0.00000048,0.00000054,-0.00000040,-0.00000049,
 -0.00000042,-0.00000004,-0.00000019,-0.00000028,0.00000054,-0.00000008
 ,-0.00000036,-0.00000019,0.00000010,-0.00000038,-0.00000064,0.00000017
 ,0.00000056,0.00000005,0.00000014,-0.00000059,0.00000016,0.00000009,0.
 00000013,0.00000025,0.00000061,0.00000009\\\@


 The lyf so short, the craft so long to lerne.
                             -- Chaucer
 Job cpu time:      22 days 19 hours 15 minutes 19.6 seconds.
 Elapsed time:       1 days  3 hours 46 minutes 50.4 seconds.
 File lengths (MBytes):  RWF=  44972 Int=      0 D2E=      0 Chk=    164 Scr=      1
 Normal termination of Gaussian 16 at Sun Mar 17 20:26:14 2024.
