 Entering Gaussian System, Link 0=g16
 Input=6water-v3-ofreq.gjf
 Output=6water-v3-ofreq.log
 Initial command:
 /packages/apps/gaussian/g16/g16/l1.exe "/scratch/mdturne9/3-5-methyl/oFreq/Gau-1319783.inp" -scrdir="/scratch/mdturne9/3-5-methyl/oFreq/"
 Entering Link 1 = /packages/apps/gaussian/g16/g16/l1.exe PID=   1319784.
  
 Copyright (c) 1988,1990,1992,1993,1995,1998,2003,2009,2016,
            Gaussian, Inc.  All Rights Reserved.
  
 This is part of the Gaussian(R) 16 program.  It is based on
 the Gaussian(R) 09 system (copyright 2009, Gaussian, Inc.),
 the Gaussian(R) 03 system (copyright 2003, Gaussian, Inc.),
 the Gaussian(R) 98 system (copyright 1998, Gaussian, Inc.),
 the Gaussian(R) 94 system (copyright 1995, Gaussian, Inc.),
 the Gaussian 92(TM) system (copyright 1992, Gaussian, Inc.),
 the Gaussian 90(TM) system (copyright 1990, Gaussian, Inc.),
 the Gaussian 88(TM) system (copyright 1988, Gaussian, Inc.),
 the Gaussian 86(TM) system (copyright 1986, Carnegie Mellon
 University), and the Gaussian 82(TM) system (copyright 1983,
 Carnegie Mellon University). Gaussian is a federally registered
 trademark of Gaussian, Inc.
  
 This software contains proprietary and confidential information,
 including trade secrets, belonging to Gaussian, Inc.
  
 This software is provided under written license and may be
 used, copied, transmitted, or stored only in accord with that
 written license.
  
 The following legend is applicable only to US Government
 contracts under FAR:
  
                    RESTRICTED RIGHTS LEGEND
  
 Use, reproduction and disclosure by the US Government is
 subject to restrictions as set forth in subparagraphs (a)
 and (c) of the Commercial Computer Software - Restricted
 Rights clause in FAR 52.227-19.
  
 Gaussian, Inc.
 340 Quinnipiac St., Bldg. 40, Wallingford CT 06492
  
  
 ---------------------------------------------------------------
 Warning -- This program may not be used in any manner that
 competes with the business of Gaussian, Inc. or will provide
 assistance to any competitor of Gaussian, Inc.  The licensee
 of this program is prohibited from giving any competitor of
 Gaussian, Inc. access to this program.  By using this program,
 the user acknowledges that Gaussian, Inc. is engaged in the
 business of creating and licensing software in the field of
 computational chemistry and represents and warrants to the
 licensee that it is not a competitor of Gaussian, Inc. and that
 it will not use this program in any manner prohibited above.
 ---------------------------------------------------------------
  

 Cite this work as:
 Gaussian 16, Revision A.03,
 M. J. Frisch, G. W. Trucks, H. B. Schlegel, G. E. Scuseria, 
 M. A. Robb, J. R. Cheeseman, G. Scalmani, V. Barone, 
 G. A. Petersson, H. Nakatsuji, X. Li, M. Caricato, A. V. Marenich, 
 J. Bloino, B. G. Janesko, R. Gomperts, B. Mennucci, H. P. Hratchian, 
 J. V. Ortiz, A. F. Izmaylov, J. L. Sonnenberg, D. Williams-Young, 
 F. Ding, F. Lipparini, F. Egidi, J. Goings, B. Peng, A. Petrone, 
 T. Henderson, D. Ranasinghe, V. G. Zakrzewski, J. Gao, N. Rega, 
 G. Zheng, W. Liang, M. Hada, M. Ehara, K. Toyota, R. Fukuda, 
 J. Hasegawa, M. Ishida, T. Nakajima, Y. Honda, O. Kitao, H. Nakai, 
 T. Vreven, K. Throssell, J. A. Montgomery, Jr., J. E. Peralta, 
 F. Ogliaro, M. J. Bearpark, J. J. Heyd, E. N. Brothers, K. N. Kudin, 
 V. N. Staroverov, T. A. Keith, R. Kobayashi, J. Normand, 
 K. Raghavachari, A. P. Rendell, J. C. Burant, S. S. Iyengar, 
 J. Tomasi, M. Cossi, J. M. Millam, M. Klene, C. Adamo, R. Cammi, 
 J. W. Ochterski, R. L. Martin, K. Morokuma, O. Farkas, 
 J. B. Foresman, and D. J. Fox, Gaussian, Inc., Wallingford CT, 2016.
 
 ******************************************
 Gaussian 16:  ES64L-G16RevA.03 25-Dec-2016
                19-Mar-2024 
 ******************************************
 %oldchk=6water-v2-ofreq.chk
 %nprocshared=40
 Will use up to   40 processors via shared memory.
 %mem=13GB
 %chk=6water-v3-ofreq.chk
 Copying data from "6water-v2-ofreq.chk" to current chk file "6water-v3-ofreq.chk"
 IOpt=  2 FromEx=T IUOpen= 4 IOptOp= 5 NList=   0 IFRang= 0 IUIn= 4 IUOut= 2.
 -----------------------------------------------------
 #p opt=readfc freq wb97xd/6-311+g(2d,2p) guess=tcheck
 -----------------------------------------------------
 1/10=3,18=20,19=15,26=3,38=1/1,3;
 2/9=110,12=2,17=6,18=5,40=1/2;
 3/5=4,6=6,7=212,11=2,25=1,30=1,71=1,74=-58,116=-2/1,2,3;
 4/5=101/1;
 5/5=2,38=6/2;
 6/7=2,8=2,9=2,10=2,28=1/1;
 7//1,2,3,16;
 1/18=20,19=15,26=3/3(2);
 2/9=110/2;
 99//99;
 2/9=110/2;
 3/5=4,6=6,7=212,11=2,25=1,30=1,71=1,74=-58/1,2,3;
 4/5=5,16=3,69=1/1;
 5/5=2,38=5/2;
 7//1,2,3,16;
 1/18=20,19=15,26=3/3(-5);
 2/9=110/2;
 6/7=2,8=2,9=2,10=2,19=2,28=1/1;
 99/9=1/99;
 Leave Link    1 at Tue Mar 19 21:05:53 2024, MaxMem=  1744830464 cpu:              39.9 elap:               2.4
 (Enter /packages/apps/gaussian/g16/g16/l101.exe)
 ----------------
 carb6water2 high
 ----------------
 Symbolic Z-matrix:
 Charge =  0 Multiplicity = 1
 C                    -5.61697   3.56335   0.04971 
 C                    -5.72844   2.19261   0.70602 
 H                    -6.20976   4.3028    0.58787 
 H                    -4.58357   3.91044   0.0299 
 H                    -5.97626   3.5326   -0.98101 
 C                    -4.96676   1.08409  -0.04024 
 H                    -5.36307   2.24576   1.73541 
 H                    -6.7802    1.90372   0.76919 
 C                    -5.22767  -0.27637   0.63025 
 H                    -5.37844   1.03284  -1.05387 
 H                    -4.76309  -0.29392   1.62027 
 H                    -6.3041   -0.34687   0.80648 
 C                    -4.80982  -1.53114  -0.15739 
 C                    -5.47817  -2.77892   0.44363 
 H                    -5.18964  -1.41951  -1.17857 
 H                    -5.15149  -2.89588   1.4807 
 H                    -6.55631  -2.6061    0.48083 
 C                    -5.19554  -4.05966  -0.3322 
 H                    -5.7268   -4.90535   0.10407 
 H                    -5.51518  -3.96413  -1.37195 
 H                    -4.1311   -4.29561  -0.33345 
 C                    -3.30754  -1.70517  -0.25209 
 C                    -2.66428  -1.69602  -1.48231 
 C                    -2.52767  -1.84651   0.89395 
 C                    -1.28209  -1.76752  -1.56651 
 H                    -3.24851  -1.58238  -2.38695 
 C                    -1.14901  -1.91507   0.81827 
 H                    -2.99897  -1.85582   1.86873 
 C                    -0.50657  -1.86644  -0.41827 
 H                    -0.80018  -1.69593  -2.5342 
 H                    -0.55719  -1.96754   1.72443 
 C                    -3.49601   1.42556  -0.16924 
 C                    -2.92096   1.64773  -1.41383 
 C                    -2.67627   1.50513   0.95423 
 C                    -1.56102   1.88723  -1.53934 
 H                    -3.53662   1.58699  -2.30272 
 C                    -1.31929   1.74437   0.8378 
 H                    -3.0938    1.33387   1.93839 
 C                    -0.74168   1.93022  -0.4172 
 H                    -1.12685   1.99395  -2.5263 
 H                    -0.69009   1.75692   1.72051 
 C                     0.74555   2.06495  -0.5416 
 H                     1.25592   1.53694   0.26868 
 H                     1.10291   1.64968  -1.4818 
 C                     0.98906  -1.80249  -0.48595 
 H                     1.32779  -1.25653  -1.3656 
 H                     1.38017  -1.29154   0.39121 
 C                     2.75694   3.42607  -0.39212 
 H                     3.1613    4.43409  -0.43376 
 H                     2.99899   2.95154   0.55219 
 H                     3.15147   2.82015  -1.20127 
 C                     0.72263   4.26443   0.6338 
 H                    -0.35178   4.36682   0.51347 
 H                     0.95225   3.72674   1.55336 
 H                     1.19366   5.24492   0.63731 
 C                     0.91813   4.18618  -1.78715 
 H                     1.35841   3.63626  -2.6151 
 H                    -0.16329   4.21495  -1.88786 
 H                     1.31545   5.19794  -1.75889 
 C                     3.16635  -2.88488  -0.3988 
 H                     3.70832  -3.81886  -0.51301 
 H                     3.47665  -2.17224  -1.15761 
 H                     3.34984  -2.46996   0.58756 
 C                     1.2611   -4.03915   0.5604 
 H                     1.38598  -3.49948   1.50051 
 H                     0.21929  -4.30741   0.41082 
 H                     1.88467  -4.92981   0.54003 
 C                     1.44244  -3.79715  -1.85577 
 H                     0.37385  -3.95688  -1.97227 
 H                     1.81324  -3.14799  -2.64512 
 H                     1.96709  -4.74898  -1.88123 
 N                     1.26868   3.49784  -0.52073 
 N                     1.69816  -3.14592  -0.54881 
 C                     3.38065  -0.00168   1.20321 
 O                     2.16623   0.25653   1.59439 
 O                     4.14333  -0.73343   1.8714 
 O                     3.74723   0.49627   0.0514 
 O                     2.65638   0.30755  -2.37318 
 H                     3.49134   0.09367  -2.79999 
 H                     2.93361   0.39886  -1.42993 
 O                     5.66753   2.38725  -0.14784 
 H                     5.00727   1.68557   0.03465 
 H                     6.3205    2.29504   0.54474 
 O                     1.33894   2.30259   3.01095 
 H                     1.59784   2.22354   3.9274 
 H                     1.71948   1.50965   2.55755 
 O                     5.96843  -2.32522   0.47031 
 H                     6.10434  -1.83527  -0.34661 
 H                     5.45051  -1.71133   1.02499 
 O                     5.50708  -0.42272  -1.75449 
 H                     6.1315    0.30232  -1.81508 
 H                     4.93606  -0.16333  -0.99463 
 O                     1.65447  -1.98003   3.00412 
 H                     2.56397  -2.15007   3.26082 
 H                     1.75511  -1.09626   2.57942 
 
 Add virtual bond connecting atoms H86        and O75        Dist= 3.10D+00.
 Add virtual bond connecting atoms H80        and O77        Dist= 3.20D+00.
 Add virtual bond connecting atoms H92        and O77        Dist= 3.24D+00.
 Add virtual bond connecting atoms H95        and O75        Dist= 3.26D+00.
 Add virtual bond connecting atoms H82        and O77        Dist= 3.27D+00.
 Add virtual bond connecting atoms H89        and O76        Dist= 3.47D+00.
 Add virtual bond connecting atoms O75        and H43        Dist= 3.88D+00.
 Add virtual bond connecting atoms O75        and H47        Dist= 3.99D+00.
 Add virtual bond connecting atoms O84        and H54        Dist= 3.92D+00.
 Add virtual bond connecting atoms O93        and H65        Dist= 4.07D+00.
 ITRead=  0  0  0  0  0  0  0  0  0  0  0  0  0  0  0  0  0  0  0  0
 ITRead=  0  0  0  0  0  0  0  0  0  0  0  0  0  0  0  0  0  0  0  0
 ITRead=  0  0  0  0  0  0  0  0  0  0  0  0  0  0  0  0  0  0  0  0
 ITRead=  0  0  0  0  0  0  0  0  0  0  0  0  0  0  0  0  0  0  0  0
 ITRead=  0  0  0  0  0  0  0  0  0  0  0  0  0  0  0
 MicOpt= -1 -1 -1 -1 -1 -1 -1 -1 -1 -1 -1 -1 -1 -1 -1 -1 -1 -1 -1 -1
 MicOpt= -1 -1 -1 -1 -1 -1 -1 -1 -1 -1 -1 -1 -1 -1 -1 -1 -1 -1 -1 -1
 MicOpt= -1 -1 -1 -1 -1 -1 -1 -1 -1 -1 -1 -1 -1 -1 -1 -1 -1 -1 -1 -1
 MicOpt= -1 -1 -1 -1 -1 -1 -1 -1 -1 -1 -1 -1 -1 -1 -1 -1 -1 -1 -1 -1
 MicOpt= -1 -1 -1 -1 -1 -1 -1 -1 -1 -1 -1 -1 -1 -1 -1
 NAtoms=     95 NQM=       95 NQMF=       0 NMMI=      0 NMMIF=      0
                NMic=       0 NMicF=      0.
                    Isotopes and Nuclear Properties:
 (Nuclear quadrupole moments (NQMom) in fm**2, nuclear magnetic moments (NMagM)
  in nuclear magnetons)

  Atom         1           2           3           4           5           6           7           8           9          10
 IAtWgt=          12          12           1           1           1          12           1           1          12           1
 AtmWgt=  12.0000000  12.0000000   1.0078250   1.0078250   1.0078250  12.0000000   1.0078250   1.0078250  12.0000000   1.0078250
 NucSpn=           0           0           1           1           1           0           1           1           0           1
 AtZEff=  -0.0000000  -0.0000000  -0.0000000  -0.0000000  -0.0000000  -0.0000000  -0.0000000  -0.0000000  -0.0000000  -0.0000000
 NQMom=    0.0000000   0.0000000   0.0000000   0.0000000   0.0000000   0.0000000   0.0000000   0.0000000   0.0000000   0.0000000
 NMagM=    0.0000000   0.0000000   2.7928460   2.7928460   2.7928460   0.0000000   2.7928460   2.7928460   0.0000000   2.7928460
 AtZNuc=   6.0000000   6.0000000   1.0000000   1.0000000   1.0000000   6.0000000   1.0000000   1.0000000   6.0000000   1.0000000

  Atom        11          12          13          14          15          16          17          18          19          20
 IAtWgt=           1           1          12          12           1           1           1          12           1           1
 AtmWgt=   1.0078250   1.0078250  12.0000000  12.0000000   1.0078250   1.0078250   1.0078250  12.0000000   1.0078250   1.0078250
 NucSpn=           1           1           0           0           1           1           1           0           1           1
 AtZEff=  -0.0000000  -0.0000000  -0.0000000  -0.0000000  -0.0000000  -0.0000000  -0.0000000  -0.0000000  -0.0000000  -0.0000000
 NQMom=    0.0000000   0.0000000   0.0000000   0.0000000   0.0000000   0.0000000   0.0000000   0.0000000   0.0000000   0.0000000
 NMagM=    2.7928460   2.7928460   0.0000000   0.0000000   2.7928460   2.7928460   2.7928460   0.0000000   2.7928460   2.7928460
 AtZNuc=   1.0000000   1.0000000   6.0000000   6.0000000   1.0000000   1.0000000   1.0000000   6.0000000   1.0000000   1.0000000

  Atom        21          22          23          24          25          26          27          28          29          30
 IAtWgt=           1          12          12          12          12           1          12           1          12           1
 AtmWgt=   1.0078250  12.0000000  12.0000000  12.0000000  12.0000000   1.0078250  12.0000000   1.0078250  12.0000000   1.0078250
 NucSpn=           1           0           0           0           0           1           0           1           0           1
 AtZEff=  -0.0000000  -0.0000000  -0.0000000  -0.0000000  -0.0000000  -0.0000000  -0.0000000  -0.0000000  -0.0000000  -0.0000000
 NQMom=    0.0000000   0.0000000   0.0000000   0.0000000   0.0000000   0.0000000   0.0000000   0.0000000   0.0000000   0.0000000
 NMagM=    2.7928460   0.0000000   0.0000000   0.0000000   0.0000000   2.7928460   0.0000000   2.7928460   0.0000000   2.7928460
 AtZNuc=   1.0000000   6.0000000   6.0000000   6.0000000   6.0000000   1.0000000   6.0000000   1.0000000   6.0000000   1.0000000

  Atom        31          32          33          34          35          36          37          38          39          40
 IAtWgt=           1          12          12          12          12           1          12           1          12           1
 AtmWgt=   1.0078250  12.0000000  12.0000000  12.0000000  12.0000000   1.0078250  12.0000000   1.0078250  12.0000000   1.0078250
 NucSpn=           1           0           0           0           0           1           0           1           0           1
 AtZEff=  -0.0000000  -0.0000000  -0.0000000  -0.0000000  -0.0000000  -0.0000000  -0.0000000  -0.0000000  -0.0000000  -0.0000000
 NQMom=    0.0000000   0.0000000   0.0000000   0.0000000   0.0000000   0.0000000   0.0000000   0.0000000   0.0000000   0.0000000
 NMagM=    2.7928460   0.0000000   0.0000000   0.0000000   0.0000000   2.7928460   0.0000000   2.7928460   0.0000000   2.7928460
 AtZNuc=   1.0000000   6.0000000   6.0000000   6.0000000   6.0000000   1.0000000   6.0000000   1.0000000   6.0000000   1.0000000

  Atom        41          42          43          44          45          46          47          48          49          50
 IAtWgt=           1          12           1           1          12           1           1          12           1           1
 AtmWgt=   1.0078250  12.0000000   1.0078250   1.0078250  12.0000000   1.0078250   1.0078250  12.0000000   1.0078250   1.0078250
 NucSpn=           1           0           1           1           0           1           1           0           1           1
 AtZEff=  -0.0000000  -0.0000000  -0.0000000  -0.0000000  -0.0000000  -0.0000000  -0.0000000  -0.0000000  -0.0000000  -0.0000000
 NQMom=    0.0000000   0.0000000   0.0000000   0.0000000   0.0000000   0.0000000   0.0000000   0.0000000   0.0000000   0.0000000
 NMagM=    2.7928460   0.0000000   2.7928460   2.7928460   0.0000000   2.7928460   2.7928460   0.0000000   2.7928460   2.7928460
 AtZNuc=   1.0000000   6.0000000   1.0000000   1.0000000   6.0000000   1.0000000   1.0000000   6.0000000   1.0000000   1.0000000

  Atom        51          52          53          54          55          56          57          58          59          60
 IAtWgt=           1          12           1           1           1          12           1           1           1          12
 AtmWgt=   1.0078250  12.0000000   1.0078250   1.0078250   1.0078250  12.0000000   1.0078250   1.0078250   1.0078250  12.0000000
 NucSpn=           1           0           1           1           1           0           1           1           1           0
 AtZEff=  -0.0000000  -0.0000000  -0.0000000  -0.0000000  -0.0000000  -0.0000000  -0.0000000  -0.0000000  -0.0000000  -0.0000000
 NQMom=    0.0000000   0.0000000   0.0000000   0.0000000   0.0000000   0.0000000   0.0000000   0.0000000   0.0000000   0.0000000
 NMagM=    2.7928460   0.0000000   2.7928460   2.7928460   2.7928460   0.0000000   2.7928460   2.7928460   2.7928460   0.0000000
 AtZNuc=   1.0000000   6.0000000   1.0000000   1.0000000   1.0000000   6.0000000   1.0000000   1.0000000   1.0000000   6.0000000

  Atom        61          62          63          64          65          66          67          68          69          70
 IAtWgt=           1           1           1          12           1           1           1          12           1           1
 AtmWgt=   1.0078250   1.0078250   1.0078250  12.0000000   1.0078250   1.0078250   1.0078250  12.0000000   1.0078250   1.0078250
 NucSpn=           1           1           1           0           1           1           1           0           1           1
 AtZEff=  -0.0000000  -0.0000000  -0.0000000  -0.0000000  -0.0000000  -0.0000000  -0.0000000  -0.0000000  -0.0000000  -0.0000000
 NQMom=    0.0000000   0.0000000   0.0000000   0.0000000   0.0000000   0.0000000   0.0000000   0.0000000   0.0000000   0.0000000
 NMagM=    2.7928460   2.7928460   2.7928460   0.0000000   2.7928460   2.7928460   2.7928460   0.0000000   2.7928460   2.7928460
 AtZNuc=   1.0000000   1.0000000   1.0000000   6.0000000   1.0000000   1.0000000   1.0000000   6.0000000   1.0000000   1.0000000

  Atom        71          72          73          74          75          76          77          78          79          80
 IAtWgt=           1          14          14          12          16          16          16          16           1           1
 AtmWgt=   1.0078250  14.0030740  14.0030740  12.0000000  15.9949146  15.9949146  15.9949146  15.9949146   1.0078250   1.0078250
 NucSpn=           1           2           2           0           0           0           0           0           1           1
 AtZEff=  -0.0000000  -0.0000000  -0.0000000  -0.0000000  -0.0000000  -0.0000000  -0.0000000  -0.0000000  -0.0000000  -0.0000000
 NQMom=    0.0000000   2.0440000   2.0440000   0.0000000   0.0000000   0.0000000   0.0000000   0.0000000   0.0000000   0.0000000
 NMagM=    2.7928460   0.4037610   0.4037610   0.0000000   0.0000000   0.0000000   0.0000000   0.0000000   2.7928460   2.7928460
 AtZNuc=   1.0000000   7.0000000   7.0000000   6.0000000   8.0000000   8.0000000   8.0000000   8.0000000   1.0000000   1.0000000

  Atom        81          82          83          84          85          86          87          88          89          90
 IAtWgt=          16           1           1          16           1           1          16           1           1          16
 AtmWgt=  15.9949146   1.0078250   1.0078250  15.9949146   1.0078250   1.0078250  15.9949146   1.0078250   1.0078250  15.9949146
 NucSpn=           0           1           1           0           1           1           0           1           1           0
 AtZEff=  -0.0000000  -0.0000000  -0.0000000  -0.0000000  -0.0000000  -0.0000000  -0.0000000  -0.0000000  -0.0000000  -0.0000000
 NQMom=    0.0000000   0.0000000   0.0000000   0.0000000   0.0000000   0.0000000   0.0000000   0.0000000   0.0000000   0.0000000
 NMagM=    0.0000000   2.7928460   2.7928460   0.0000000   2.7928460   2.7928460   0.0000000   2.7928460   2.7928460   0.0000000
 AtZNuc=   8.0000000   1.0000000   1.0000000   8.0000000   1.0000000   1.0000000   8.0000000   1.0000000   1.0000000   8.0000000

  Atom        91          92          93          94          95
 IAtWgt=           1           1          16           1           1
 AtmWgt=   1.0078250   1.0078250  15.9949146   1.0078250   1.0078250
 NucSpn=           1           1           0           1           1
 AtZEff=  -0.0000000  -0.0000000  -0.0000000  -0.0000000  -0.0000000
 NQMom=    0.0000000   0.0000000   0.0000000   0.0000000   0.0000000
 NMagM=    2.7928460   2.7928460   0.0000000   2.7928460   2.7928460
 AtZNuc=   1.0000000   1.0000000   8.0000000   1.0000000   1.0000000
 Leave Link  101 at Tue Mar 19 21:05:56 2024, MaxMem=  1744830464 cpu:              29.9 elap:               1.7
 (Enter /packages/apps/gaussian/g16/g16/l103.exe)

 GradGradGradGradGradGradGradGradGradGradGradGradGradGradGradGradGradGrad
 Berny optimization.
 Initialization pass.
 Force constant matrix read from checkpoint file:
 "6water-v3-ofreq.chk"
 NVar current= 555 chk= 555 common= 555.
                           ----------------------------
                           !    Initial Parameters    !
                           ! (Angstroms and Degrees)  !
 --------------------------                            --------------------------
 ! Name  Definition              Value          Derivative Info.                !
 --------------------------------------------------------------------------------
 ! R1    R(1,2)                  1.5238         D2E/DX2 =    0.291              !
 ! R2    R(1,3)                  1.0899         D2E/DX2 =    0.3419             !
 ! R3    R(1,4)                  1.0903         D2E/DX2 =    0.3417             !
 ! R4    R(1,5)                  1.092          D2E/DX2 =    0.3372             !
 ! R5    R(2,6)                  1.5381         D2E/DX2 =    0.2758             !
 ! R6    R(2,7)                  1.0936         D2E/DX2 =    0.3323             !
 ! R7    R(2,8)                  1.0925         D2E/DX2 =    0.3335             !
 ! R8    R(6,9)                  1.539          D2E/DX2 =    0.2678             !
 ! R9    R(6,10)                 1.0952         D2E/DX2 =    0.326              !
 ! R10   R(6,32)                 1.5154         D2E/DX2 =    0.2774             !
 ! R11   R(9,11)                 1.0937         D2E/DX2 =    0.3329             !
 ! R12   R(9,12)                 1.093          D2E/DX2 =    0.3326             !
 ! R13   R(9,13)                 1.5393         D2E/DX2 =    0.2649             !
 ! R14   R(13,14)                1.5378         D2E/DX2 =    0.2763             !
 ! R15   R(13,15)                1.0952         D2E/DX2 =    0.326              !
 ! R16   R(13,22)                1.5153         D2E/DX2 =    0.2773             !
 ! R17   R(14,16)                1.0936         D2E/DX2 =    0.3324             !
 ! R18   R(14,17)                1.0925         D2E/DX2 =    0.3336             !
 ! R19   R(14,18)                1.5238         D2E/DX2 =    0.2911             !
 ! R20   R(18,19)                1.0899         D2E/DX2 =    0.3421             !
 ! R21   R(18,20)                1.092          D2E/DX2 =    0.3372             !
 ! R22   R(18,21)                1.0903         D2E/DX2 =    0.3418             !
 ! R23   R(22,23)                1.3883         D2E/DX2 =    0.3951             !
 ! R24   R(22,24)                1.3934         D2E/DX2 =    0.3825             !
 ! R25   R(23,25)                1.3866         D2E/DX2 =    0.3883             !
 ! R26   R(23,26)                1.0829         D2E/DX2 =    0.3581             !
 ! R27   R(24,27)                1.3824         D2E/DX2 =    0.3993             !
 ! R28   R(24,28)                1.0828         D2E/DX2 =    0.3591             !
 ! R29   R(25,29)                1.3891         D2E/DX2 =    0.3945             !
 ! R30   R(25,30)                1.0834         D2E/DX2 =    0.3574             !
 ! R31   R(27,29)                1.3943         D2E/DX2 =    0.3866             !
 ! R32   R(27,31)                1.0836         D2E/DX2 =    0.3582             !
 ! R33   R(29,45)                1.4985         D2E/DX2 =    0.3012             !
 ! R34   R(32,33)                1.3889         D2E/DX2 =    0.3942             !
 ! R35   R(32,34)                1.393          D2E/DX2 =    0.3816             !
 ! R36   R(33,35)                1.3866         D2E/DX2 =    0.3897             !
 ! R37   R(33,36)                1.083          D2E/DX2 =    0.3579             !
 ! R38   R(34,37)                1.3828         D2E/DX2 =    0.3962             !
 ! R39   R(34,38)                1.0827         D2E/DX2 =    0.3594             !
 ! R40   R(35,39)                1.3901         D2E/DX2 =    0.3923             !
 ! R41   R(35,40)                1.0835         D2E/DX2 =    0.3572             !
 ! R42   R(37,39)                1.394          D2E/DX2 =    0.3873             !
 ! R43   R(37,41)                1.0841         D2E/DX2 =    0.3565             !
 ! R44   R(39,42)                1.4985         D2E/DX2 =    0.3005             !
 ! R45   R(42,43)                1.0935         D2E/DX2 =    0.2981             !
 ! R46   R(42,44)                1.0882         D2E/DX2 =    0.3476             !
 ! R47   R(42,72)                1.5255         D2E/DX2 =    0.2312             !
 ! R48   R(43,75)                2.0556         D2E/DX2 =    0.0316             !
 ! R49   R(45,46)                1.0893         D2E/DX2 =    0.3441             !
 ! R50   R(45,47)                1.0879         D2E/DX2 =    0.3129             !
 ! R51   R(45,73)                1.5204         D2E/DX2 =    0.2421             !
 ! R52   R(47,75)                2.1124         D2E/DX2 =    0.0363             !
 ! R53   R(48,49)                1.0869         D2E/DX2 =    0.3508             !
 ! R54   R(48,50)                1.0842         D2E/DX2 =    0.3603             !
 ! R55   R(48,51)                1.0851         D2E/DX2 =    0.3571             !
 ! R56   R(48,72)                1.4955         D2E/DX2 =    0.299              !
 ! R57   R(52,53)                1.086          D2E/DX2 =    0.3532             !
 ! R58   R(52,54)                1.0897         D2E/DX2 =    0.3109             !
 ! R59   R(52,55)                1.0878         D2E/DX2 =    0.3482             !
 ! R60   R(52,72)                1.4895         D2E/DX2 =    0.2817             !
 ! R61   R(54,84)                2.0742         D2E/DX2 =    0.0157             !
 ! R62   R(56,57)                1.0871         D2E/DX2 =    0.3507             !
 ! R63   R(56,58)                1.0865         D2E/DX2 =    0.3524             !
 ! R64   R(56,59)                1.0873         D2E/DX2 =    0.3495             !
 ! R65   R(56,72)                1.4834         D2E/DX2 =    0.3115             !
 ! R66   R(60,61)                1.0859         D2E/DX2 =    0.3537             !
 ! R67   R(60,62)                1.0863         D2E/DX2 =    0.3542             !
 ! R68   R(60,63)                1.0857         D2E/DX2 =    0.3542             !
 ! R69   R(60,73)                1.4987         D2E/DX2 =    0.2956             !
 ! R70   R(64,65)                1.0912         D2E/DX2 =    0.3125             !
 ! R71   R(64,66)                1.0861         D2E/DX2 =    0.3526             !
 ! R72   R(64,67)                1.0874         D2E/DX2 =    0.349              !
 ! R73   R(64,73)                1.4897         D2E/DX2 =    0.2826             !
 ! R74   R(65,93)                2.1544         D2E/DX2 =    0.0137             !
 ! R75   R(68,69)                1.0867         D2E/DX2 =    0.3516             !
 ! R76   R(68,70)                1.0872         D2E/DX2 =    0.3503             !
 ! R77   R(68,71)                1.0871         D2E/DX2 =    0.3501             !
 ! R78   R(68,73)                1.4824         D2E/DX2 =    0.3127             !
 ! R79   R(74,75)                1.3017         D2E/DX2 =    0.519              !
 ! R80   R(74,76)                1.2504         D2E/DX2 =    0.6612             !
 ! R81   R(74,77)                1.3073         D2E/DX2 =    0.506              !
 ! R82   R(75,86)                1.6424         D2E/DX2 =    0.0314             !
 ! R83   R(75,95)                1.7232         D2E/DX2 =    0.0281             !
 ! R84   R(76,89)                1.8389         D2E/DX2 =    0.0207             !
 ! R85   R(77,80)                1.6929         D2E/DX2 =    0.0319             !
 ! R86   R(77,82)                1.7327         D2E/DX2 =    0.0259             !
 ! R87   R(77,92)                1.7154         D2E/DX2 =    0.0315             !
 ! R88   R(78,79)                0.9618         D2E/DX2 =    0.5384             !
 ! R89   R(78,80)                0.9874         D2E/DX2 =    0.4544             !
 ! R90   R(81,82)                0.9806         D2E/DX2 =    0.4753             !
 ! R91   R(81,83)                0.9563         D2E/DX2 =    0.5626             !
 ! R92   R(84,85)                0.9556         D2E/DX2 =    0.5651             !
 ! R93   R(84,86)                0.9895         D2E/DX2 =    0.413              !
 ! R94   R(87,88)                0.9622         D2E/DX2 =    0.5312             !
 ! R95   R(87,89)                0.9761         D2E/DX2 =    0.4922             !
 ! R96   R(90,91)                0.9588         D2E/DX2 =    0.5525             !
 ! R97   R(90,92)                0.9853         D2E/DX2 =    0.4618             !
 ! R98   R(93,94)                0.9602         D2E/DX2 =    0.5481             !
 ! R99   R(93,95)                0.9857         D2E/DX2 =    0.4241             !
 ! A1    A(2,1,3)              110.9678         D2E/DX2 =    0.1015             !
 ! A2    A(2,1,4)              111.3158         D2E/DX2 =    0.1049             !
 ! A3    A(2,1,5)              110.9246         D2E/DX2 =    0.104              !
 ! A4    A(3,1,4)              107.9693         D2E/DX2 =    0.0517             !
 ! A5    A(3,1,5)              107.8323         D2E/DX2 =    0.0511             !
 ! A6    A(4,1,5)              107.6784         D2E/DX2 =    0.0518             !
 ! A7    A(1,2,6)              113.7715         D2E/DX2 =    0.1507             !
 ! A8    A(1,2,7)              109.7099         D2E/DX2 =    0.05               !
 ! A9    A(1,2,8)              109.4616         D2E/DX2 =    0.051              !
 ! A10   A(6,2,7)              109.0423         D2E/DX2 =    0.0519             !
 ! A11   A(6,2,8)              108.3121         D2E/DX2 =    0.0519             !
 ! A12   A(7,2,8)              106.2636         D2E/DX2 =    0.0184             !
 ! A13   A(2,6,9)              109.9838         D2E/DX2 =    0.0773             !
 ! A14   A(2,6,10)             107.254          D2E/DX2 =    0.0227             !
 ! A15   A(2,6,32)             111.0706         D2E/DX2 =    0.062              !
 ! A16   A(9,6,10)             107.3444         D2E/DX2 =    0.0237             !
 ! A17   A(9,6,32)             113.6299         D2E/DX2 =    0.0372             !
 ! A18   A(10,6,32)            107.2522         D2E/DX2 =    0.022              !
 ! A19   A(6,9,11)             109.6649         D2E/DX2 =    0.0465             !
 ! A20   A(6,9,12)             107.1105         D2E/DX2 =    0.0454             !
 ! A21   A(6,9,13)             116.8492         D2E/DX2 =    0.0867             !
 ! A22   A(11,9,12)            105.7439         D2E/DX2 =    0.0153             !
 ! A23   A(11,9,13)            109.5595         D2E/DX2 =    0.0466             !
 ! A24   A(12,9,13)            107.2931         D2E/DX2 =    0.0451             !
 ! A25   A(9,13,14)            110.0878         D2E/DX2 =    0.0769             !
 ! A26   A(9,13,15)            107.4498         D2E/DX2 =    0.0238             !
 ! A27   A(9,13,22)            113.2491         D2E/DX2 =    0.036              !
 ! A28   A(14,13,15)           107.24           D2E/DX2 =    0.0227             !
 ! A29   A(14,13,22)           111.2303         D2E/DX2 =    0.062              !
 ! A30   A(15,13,22)           107.2926         D2E/DX2 =    0.022              !
 ! A31   A(13,14,16)           109.1215         D2E/DX2 =    0.052              !
 ! A32   A(13,14,17)           108.2909         D2E/DX2 =    0.0518             !
 ! A33   A(13,14,18)           113.7261         D2E/DX2 =    0.1501             !
 ! A34   A(16,14,17)           106.2254         D2E/DX2 =    0.0185             !
 ! A35   A(16,14,18)           109.7265         D2E/DX2 =    0.0499             !
 ! A36   A(17,14,18)           109.4703         D2E/DX2 =    0.0508             !
 ! A37   A(14,18,19)           110.975          D2E/DX2 =    0.1017             !
 ! A38   A(14,18,20)           110.914          D2E/DX2 =    0.104              !
 ! A39   A(14,18,21)           111.3185         D2E/DX2 =    0.105              !
 ! A40   A(19,18,20)           107.8399         D2E/DX2 =    0.0511             !
 ! A41   A(19,18,21)           107.9652         D2E/DX2 =    0.0517             !
 ! A42   A(20,18,21)           107.6756         D2E/DX2 =    0.0519             !
 ! A43   A(13,22,23)           120.9306         D2E/DX2 =    0.1036             !
 ! A44   A(13,22,24)           121.0057         D2E/DX2 =    0.106              !
 ! A45   A(23,22,24)           118.0457         D2E/DX2 =    0.0845             !
 ! A46   A(22,23,25)           121.0206         D2E/DX2 =    0.082              !
 ! A47   A(22,23,26)           119.4065         D2E/DX2 =    0.0836             !
 ! A48   A(25,23,26)           119.5042         D2E/DX2 =    0.0836             !
 ! A49   A(22,24,27)           121.2087         D2E/DX2 =    0.0815             !
 ! A50   A(22,24,28)           119.8481         D2E/DX2 =    0.0831             !
 ! A51   A(27,24,28)           118.8774         D2E/DX2 =    0.0847             !
 ! A52   A(23,25,29)           120.6628         D2E/DX2 =    0.0823             !
 ! A53   A(23,25,30)           119.6186         D2E/DX2 =    0.0835             !
 ! A54   A(29,25,30)           119.6484         D2E/DX2 =    0.0836             !
 ! A55   A(24,27,29)           120.4188         D2E/DX2 =    0.0813             !
 ! A56   A(24,27,31)           120.0864         D2E/DX2 =    0.0862             !
 ! A57   A(29,27,31)           119.4507         D2E/DX2 =    0.0874             !
 ! A58   A(25,29,27)           118.5751         D2E/DX2 =    0.085              !
 ! A59   A(25,29,45)           121.1197         D2E/DX2 =    0.1065             !
 ! A60   A(27,29,45)           120.0931         D2E/DX2 =    0.1111             !
 ! A61   A(6,32,33)            120.9415         D2E/DX2 =    0.1046             !
 ! A62   A(6,32,34)            121.0209         D2E/DX2 =    0.1051             !
 ! A63   A(33,32,34)           118.03           D2E/DX2 =    0.0846             !
 ! A64   A(32,33,35)           120.9854         D2E/DX2 =    0.0818             !
 ! A65   A(32,33,36)           119.4167         D2E/DX2 =    0.0836             !
 ! A66   A(35,33,36)           119.5358         D2E/DX2 =    0.0836             !
 ! A67   A(32,34,37)           121.2948         D2E/DX2 =    0.0817             !
 ! A68   A(32,34,38)           119.8107         D2E/DX2 =    0.0834             !
 ! A69   A(37,34,38)           118.838          D2E/DX2 =    0.0848             !
 ! A70   A(33,35,39)           120.6889         D2E/DX2 =    0.0818             !
 ! A71   A(33,35,40)           119.5037         D2E/DX2 =    0.0835             !
 ! A72   A(39,35,40)           119.7408         D2E/DX2 =    0.0833             !
 ! A73   A(34,37,39)           120.3634         D2E/DX2 =    0.0812             !
 ! A74   A(34,37,41)           120.1986         D2E/DX2 =    0.087              !
 ! A75   A(39,37,41)           119.4084         D2E/DX2 =    0.0886             !
 ! A76   A(35,39,37)           118.5809         D2E/DX2 =    0.0851             !
 ! A77   A(35,39,42)           121.3829         D2E/DX2 =    0.1045             !
 ! A78   A(37,39,42)           119.8656         D2E/DX2 =    0.1063             !
 ! A79   A(39,42,43)           110.9942         D2E/DX2 =    0.0307             !
 ! A80   A(39,42,44)           111.3058         D2E/DX2 =    0.016              !
 ! A81   A(39,42,72)           115.0653         D2E/DX2 =    0.0515             !
 ! A82   A(43,42,44)           107.6182         D2E/DX2 =    0.017              !
 ! A83   A(43,42,72)           106.4602         D2E/DX2 =    0.0456             !
 ! A84   A(44,42,72)           104.931          D2E/DX2 =    0.0204             !
 ! A85   A(29,45,46)           111.6053         D2E/DX2 =    0.0322             !
 ! A86   A(29,45,47)           110.0261         D2E/DX2 =    0.0253             !
 ! A87   A(29,45,73)           115.4456         D2E/DX2 =    0.0724             !
 ! A88   A(46,45,47)           107.6932         D2E/DX2 =    0.0176             !
 ! A89   A(46,45,73)           105.3348         D2E/DX2 =    0.0428             !
 ! A90   A(47,45,73)           106.3007         D2E/DX2 =    0.0365             !
 ! A91   A(45,47,75)           159.5982         D2E/DX2 =    0.0333             !
 ! A92   A(49,48,50)           110.8687         D2E/DX2 =    0.0532             !
 ! A93   A(49,48,51)           110.7342         D2E/DX2 =    0.0536             !
 ! A94   A(49,48,72)           108.809          D2E/DX2 =    0.1265             !
 ! A95   A(50,48,51)           108.8987         D2E/DX2 =    0.053              !
 ! A96   A(50,48,72)           108.5461         D2E/DX2 =    0.1359             !
 ! A97   A(51,48,72)           108.9346         D2E/DX2 =    0.1372             !
 ! A98   A(53,52,54)           110.3953         D2E/DX2 =    0.0281             !
 ! A99   A(53,52,55)           110.1078         D2E/DX2 =    0.0187             !
 ! A100  A(53,52,72)           108.9855         D2E/DX2 =    0.0392             !
 ! A101  A(54,52,55)           110.5364         D2E/DX2 =    0.0282             !
 ! A102  A(54,52,72)           108.8372         D2E/DX2 =    0.0458             !
 ! A103  A(55,52,72)           107.9181         D2E/DX2 =    0.0421             !
 ! A104  A(57,56,58)           110.238          D2E/DX2 =    0.0534             !
 ! A105  A(57,56,59)           110.0298         D2E/DX2 =    0.0529             !
 ! A106  A(57,56,72)           108.6491         D2E/DX2 =    0.131              !
 ! A107  A(58,56,59)           109.9664         D2E/DX2 =    0.0534             !
 ! A108  A(58,56,72)           109.0646         D2E/DX2 =    0.1302             !
 ! A109  A(59,56,72)           108.8582         D2E/DX2 =    0.1301             !
 ! A110  A(61,60,62)           110.3795         D2E/DX2 =    0.0529             !
 ! A111  A(61,60,63)           109.872          D2E/DX2 =    0.0534             !
 ! A112  A(61,60,73)           109.184          D2E/DX2 =    0.124              !
 ! A113  A(62,60,63)           109.6116         D2E/DX2 =    0.0538             !
 ! A114  A(62,60,73)           108.9163         D2E/DX2 =    0.1293             !
 ! A115  A(63,60,73)           108.8479         D2E/DX2 =    0.1406             !
 ! A116  A(65,64,66)           110.5233         D2E/DX2 =    0.0328             !
 ! A117  A(65,64,67)           110.83           D2E/DX2 =    0.0331             !
 ! A118  A(65,64,73)           108.142          D2E/DX2 =    0.0467             !
 ! A119  A(66,64,67)           110.191          D2E/DX2 =    0.0265             !
 ! A120  A(66,64,73)           109.0845         D2E/DX2 =    0.0697             !
 ! A121  A(67,64,73)           107.9936         D2E/DX2 =    0.0691             !
 ! A122  A(64,65,93)           164.658          D2E/DX2 =    0.0345             !
 ! A123  A(69,68,70)           110.2            D2E/DX2 =    0.0534             !
 ! A124  A(69,68,71)           110.0807         D2E/DX2 =    0.0533             !
 ! A125  A(69,68,73)           109.1901         D2E/DX2 =    0.1302             !
 ! A126  A(70,68,71)           109.9491         D2E/DX2 =    0.0526             !
 ! A127  A(70,68,73)           108.6            D2E/DX2 =    0.1307             !
 ! A128  A(71,68,73)           108.7851         D2E/DX2 =    0.1296             !
 ! A129  A(42,72,48)           107.2982         D2E/DX2 =    0.0379             !
 ! A130  A(42,72,52)           111.6101         D2E/DX2 =    0.0286             !
 ! A131  A(42,72,56)           110.0673         D2E/DX2 =    0.0331             !
 ! A132  A(48,72,52)           108.8355         D2E/DX2 =    0.0319             !
 ! A133  A(48,72,56)           109.3202         D2E/DX2 =    0.0336             !
 ! A134  A(52,72,56)           109.6498         D2E/DX2 =    0.0344             !
 ! A135  A(45,73,60)           107.3884         D2E/DX2 =    0.0352             !
 ! A136  A(45,73,64)           111.2353         D2E/DX2 =    0.0295             !
 ! A137  A(45,73,68)           110.1309         D2E/DX2 =    0.0326             !
 ! A138  A(60,73,64)           108.5007         D2E/DX2 =    0.0328             !
 ! A139  A(60,73,68)           109.4956         D2E/DX2 =    0.0345             !
 ! A140  A(64,73,68)           110.0249         D2E/DX2 =    0.0325             !
 ! A141  A(75,74,76)           121.6351         D2E/DX2 =    0.3261             !
 ! A142  A(75,74,77)           116.7961         D2E/DX2 =    0.4988             !
 ! A143  A(76,74,77)           121.5125         D2E/DX2 =    0.4258             !
 ! A144  A(43,75,47)            85.6616         D2E/DX2 =    0.0069             !
 ! A145  A(43,75,74)           110.0529         D2E/DX2 =    0.027              !
 ! A146  A(43,75,86)            77.4379         D2E/DX2 =    0.0101             !
 ! A147  A(43,75,95)           138.7635         D2E/DX2 =    0.0083             !
 ! A148  A(47,75,74)            91.7553         D2E/DX2 =    0.0272             !
 ! A149  A(47,75,86)           142.3683         D2E/DX2 =    0.0079             !
 ! A150  A(47,75,95)            70.2132         D2E/DX2 =    0.0057             !
 ! A151  A(74,75,86)           125.544          D2E/DX2 =    0.0168             !
 ! A152  A(74,75,95)           103.8063         D2E/DX2 =    0.0329             !
 ! A153  A(86,75,95)           101.4699         D2E/DX2 =    0.006              !
 ! A154  A(74,76,89)           119.9211         D2E/DX2 =    0.2938             !
 ! A155  A(74,77,80)           127.8997         D2E/DX2 =    0.0617             !
 ! A156  A(74,77,82)           118.2855         D2E/DX2 =    0.0199             !
 ! A157  A(74,77,92)           125.8128         D2E/DX2 =    0.0455             !
 ! A158  A(80,77,82)           112.3672         D2E/DX2 =    0.0219             !
 ! A159  A(80,77,92)            77.1365         D2E/DX2 =    0.0436             !
 ! A160  A(82,77,92)            75.7624         D2E/DX2 =    0.0158             !
 ! A161  A(79,78,80)           101.581          D2E/DX2 =    0.1574             !
 ! A162  A(82,81,83)           104.8304         D2E/DX2 =    0.142              !
 ! A163  A(54,84,85)           141.3747         D2E/DX2 =    0.0149             !
 ! A164  A(54,84,86)           107.4521         D2E/DX2 =    0.0225             !
 ! A165  A(85,84,86)           105.6024         D2E/DX2 =    0.0452             !
 ! A166  A(88,87,89)           103.7184         D2E/DX2 =    0.1795             !
 ! A167  A(91,90,92)           103.1271         D2E/DX2 =    0.1427             !
 ! A168  A(65,93,94)           100.3536         D2E/DX2 =    0.0076             !
 ! A169  A(65,93,95)           110.1431         D2E/DX2 =    0.022              !
 ! A170  A(94,93,95)           100.2101         D2E/DX2 =    0.0559             !
 ! A171  L(42,43,75,7,-1)      180.7373         D2E/DX2 =    0.0279             !
 ! A172  L(52,54,84,1,-1)      176.337          D2E/DX2 =    0.0327             !
 ! A173  L(77,80,78,1,-1)      192.2482         D2E/DX2 =    0.0647             !
 ! A174  L(77,82,81,48,-1)     175.042          D2E/DX2 =    0.0294             !
 ! A175  L(75,86,84,2,-1)      171.5013         D2E/DX2 =    0.029              !
 ! A176  L(76,89,87,60,-1)     166.7122         D2E/DX2 =    0.0636             !
 ! A177  L(77,92,90,60,-1)     183.993          D2E/DX2 =    0.0393             !
 ! A178  L(75,95,93,2,-1)      188.0356         D2E/DX2 =    0.0319             !
 ! A179  L(42,43,75,7,-2)      169.5267         D2E/DX2 =    0.0235             !
 ! A180  L(52,54,84,1,-2)      165.7654         D2E/DX2 =    0.0336             !
 ! A181  L(77,80,78,1,-2)      177.3269         D2E/DX2 =    0.0537             !
 ! A182  L(77,82,81,48,-2)     189.5618         D2E/DX2 =    0.0282             !
 ! A183  L(75,86,84,2,-2)      185.5309         D2E/DX2 =    0.019              !
 ! A184  L(76,89,87,60,-2)     180.3623         D2E/DX2 =    0.0825             !
 ! A185  L(77,92,90,60,-2)     167.0511         D2E/DX2 =    0.0584             !
 ! A186  L(75,95,93,2,-2)      169.3716         D2E/DX2 =    0.0194             !
 ! D1    D(3,1,2,6)            177.3444         D2E/DX2 =    0.0143             !
 ! D2    D(3,1,2,7)            -60.2105         D2E/DX2 =    0.0145             !
 ! D3    D(3,1,2,8)             56.0277         D2E/DX2 =    0.0146             !
 ! D4    D(4,1,2,6)            -62.3788         D2E/DX2 =    0.0142             !
 ! D5    D(4,1,2,7)             60.0663         D2E/DX2 =    0.0152             !
 ! D6    D(4,1,2,8)            176.3045         D2E/DX2 =    0.0145             !
 ! D7    D(5,1,2,6)             57.5011         D2E/DX2 =    0.0138             !
 ! D8    D(5,1,2,7)            179.9462         D2E/DX2 =    0.0145             !
 ! D9    D(5,1,2,8)            -63.8156         D2E/DX2 =    0.0151             !
 ! D10   D(1,2,6,9)           -175.549          D2E/DX2 =    0.0135             !
 ! D11   D(1,2,6,10)           -59.1189         D2E/DX2 =    0.0126             !
 ! D12   D(1,2,6,32)            57.7832         D2E/DX2 =    0.0145             !
 ! D13   D(7,2,6,9)             61.6391         D2E/DX2 =    0.0133             !
 ! D14   D(7,2,6,10)           178.0692         D2E/DX2 =    0.0135             !
 ! D15   D(7,2,6,32)           -65.0287         D2E/DX2 =    0.0138             !
 ! D16   D(8,2,6,9)            -53.594          D2E/DX2 =    0.0139             !
 ! D17   D(8,2,6,10)            62.8361         D2E/DX2 =    0.0136             !
 ! D18   D(8,2,6,32)           179.7382         D2E/DX2 =    0.0147             !
 ! D19   D(2,6,9,11)           -67.9476         D2E/DX2 =    0.0165             !
 ! D20   D(2,6,9,12)            46.3513         D2E/DX2 =    0.0175             !
 ! D21   D(2,6,9,13)           166.6456         D2E/DX2 =    0.0195             !
 ! D22   D(10,6,9,11)          175.679          D2E/DX2 =    0.0135             !
 ! D23   D(10,6,9,12)          -70.022          D2E/DX2 =    0.0139             !
 ! D24   D(10,6,9,13)           50.2722         D2E/DX2 =    0.0135             !
 ! D25   D(32,6,9,11)           57.2686         D2E/DX2 =    0.0167             !
 ! D26   D(32,6,9,12)          171.5676         D2E/DX2 =    0.0169             !
 ! D27   D(32,6,9,13)          -68.1382         D2E/DX2 =    0.0152             !
 ! D28   D(2,6,32,33)         -115.112          D2E/DX2 =    0.0159             !
 ! D29   D(2,6,32,34)           65.9154         D2E/DX2 =    0.0162             !
 ! D30   D(9,6,32,33)          120.2545         D2E/DX2 =    0.0144             !
 ! D31   D(9,6,32,34)          -58.718          D2E/DX2 =    0.0154             !
 ! D32   D(10,6,32,33)           1.7911         D2E/DX2 =    0.01               !
 ! D33   D(10,6,32,34)        -177.1814         D2E/DX2 =    0.011              !
 ! D34   D(6,9,13,14)         -164.1599         D2E/DX2 =    0.0195             !
 ! D35   D(6,9,13,15)          -47.6886         D2E/DX2 =    0.0135             !
 ! D36   D(6,9,13,22)           70.6169         D2E/DX2 =    0.0155             !
 ! D37   D(11,9,13,14)          70.3805         D2E/DX2 =    0.0165             !
 ! D38   D(11,9,13,15)        -173.1482         D2E/DX2 =    0.0134             !
 ! D39   D(11,9,13,22)         -54.8427         D2E/DX2 =    0.0168             !
 ! D40   D(12,9,13,14)         -43.9627         D2E/DX2 =    0.0175             !
 ! D41   D(12,9,13,15)          72.5086         D2E/DX2 =    0.014              !
 ! D42   D(12,9,13,22)        -169.1858         D2E/DX2 =    0.0171             !
 ! D43   D(9,13,14,16)         -61.0522         D2E/DX2 =    0.0132             !
 ! D44   D(9,13,14,17)          54.1662         D2E/DX2 =    0.0138             !
 ! D45   D(9,13,14,18)         176.0868         D2E/DX2 =    0.0134             !
 ! D46   D(15,13,14,16)       -177.6547         D2E/DX2 =    0.0134             !
 ! D47   D(15,13,14,17)        -62.4363         D2E/DX2 =    0.0135             !
 ! D48   D(15,13,14,18)         59.4843         D2E/DX2 =    0.0126             !
 ! D49   D(22,13,14,16)         65.3158         D2E/DX2 =    0.0136             !
 ! D50   D(22,13,14,17)       -179.4657         D2E/DX2 =    0.0146             !
 ! D51   D(22,13,14,18)        -57.5452         D2E/DX2 =    0.0142             !
 ! D52   D(9,13,22,23)        -118.0778         D2E/DX2 =    0.0145             !
 ! D53   D(9,13,22,24)          60.351          D2E/DX2 =    0.0154             !
 ! D54   D(14,13,22,23)        117.3162         D2E/DX2 =    0.0156             !
 ! D55   D(14,13,22,24)        -64.2549         D2E/DX2 =    0.0159             !
 ! D56   D(15,13,22,23)          0.3189         D2E/DX2 =    0.01               !
 ! D57   D(15,13,22,24)        178.7478         D2E/DX2 =    0.0109             !
 ! D58   D(13,14,18,19)       -177.3465         D2E/DX2 =    0.0142             !
 ! D59   D(13,14,18,20)        -57.4959         D2E/DX2 =    0.0138             !
 ! D60   D(13,14,18,21)         62.3752         D2E/DX2 =    0.0141             !
 ! D61   D(16,14,18,19)         60.1248         D2E/DX2 =    0.0145             !
 ! D62   D(16,14,18,20)        179.9754         D2E/DX2 =    0.0145             !
 ! D63   D(16,14,18,21)        -60.1535         D2E/DX2 =    0.0152             !
 ! D64   D(17,14,18,19)        -56.0818         D2E/DX2 =    0.0146             !
 ! D65   D(17,14,18,20)         63.7688         D2E/DX2 =    0.0151             !
 ! D66   D(17,14,18,21)       -176.3601         D2E/DX2 =    0.0145             !
 ! D67   D(13,22,23,25)        175.7541         D2E/DX2 =    0.0124             !
 ! D68   D(13,22,23,26)         -1.2185         D2E/DX2 =    0.0088             !
 ! D69   D(24,22,23,25)         -2.7201         D2E/DX2 =    0.0092             !
 ! D70   D(24,22,23,26)       -179.6927         D2E/DX2 =    0.0071             !
 ! D71   D(13,22,24,27)       -175.59           D2E/DX2 =    0.0121             !
 ! D72   D(13,22,24,28)          1.4278         D2E/DX2 =    0.0089             !
 ! D73   D(23,22,24,27)          2.883          D2E/DX2 =    0.009              !
 ! D74   D(23,22,24,28)        179.9008         D2E/DX2 =    0.0074             !
 ! D75   D(22,23,25,29)          0.7761         D2E/DX2 =    0.0092             !
 ! D76   D(22,23,25,30)       -176.1672         D2E/DX2 =    0.0097             !
 ! D77   D(26,23,25,29)        177.7458         D2E/DX2 =    0.0096             !
 ! D78   D(26,23,25,30)          0.8024         D2E/DX2 =    0.0093             !
 ! D79   D(22,24,27,29)         -1.0932         D2E/DX2 =    0.0091             !
 ! D80   D(22,24,27,31)        176.476          D2E/DX2 =    0.0102             !
 ! D81   D(28,24,27,29)       -178.1393         D2E/DX2 =    0.0098             !
 ! D82   D(28,24,27,31)         -0.5701         D2E/DX2 =    0.0099             !
 ! D83   D(23,25,29,27)          1.0715         D2E/DX2 =    0.0092             !
 ! D84   D(23,25,29,45)       -173.6414         D2E/DX2 =    0.0117             !
 ! D85   D(30,25,29,27)        178.014          D2E/DX2 =    0.0075             !
 ! D86   D(30,25,29,45)          3.301          D2E/DX2 =    0.0088             !
 ! D87   D(24,27,29,25)         -0.9132         D2E/DX2 =    0.0092             !
 ! D88   D(24,27,29,45)        173.8557         D2E/DX2 =    0.0115             !
 ! D89   D(31,27,29,25)       -178.4978         D2E/DX2 =    0.0081             !
 ! D90   D(31,27,29,45)         -3.7289         D2E/DX2 =    0.0094             !
 ! D91   D(25,29,45,46)         25.2504         D2E/DX2 =    0.0126             !
 ! D92   D(25,29,45,47)        144.7404         D2E/DX2 =    0.0102             !
 ! D93   D(25,29,45,73)        -94.9772         D2E/DX2 =    0.014              !
 ! D94   D(27,29,45,46)       -149.383          D2E/DX2 =    0.013              !
 ! D95   D(27,29,45,47)        -29.893          D2E/DX2 =    0.0107             !
 ! D96   D(27,29,45,73)         90.3894         D2E/DX2 =    0.0144             !
 ! D97   D(6,32,33,35)        -176.4006         D2E/DX2 =    0.0123             !
 ! D98   D(6,32,33,36)           0.7209         D2E/DX2 =    0.0087             !
 ! D99   D(34,32,33,35)          2.6019         D2E/DX2 =    0.0092             !
 ! D100  D(34,32,33,36)        179.7234         D2E/DX2 =    0.0071             !
 ! D101  D(6,32,34,37)         176.436          D2E/DX2 =    0.0121             !
 ! D102  D(6,32,34,38)          -0.7977         D2E/DX2 =    0.0089             !
 ! D103  D(33,32,34,37)         -2.5657         D2E/DX2 =    0.0091             !
 ! D104  D(33,32,34,38)       -179.7993         D2E/DX2 =    0.0074             !
 ! D105  D(32,33,35,39)         -0.9514         D2E/DX2 =    0.0093             !
 ! D106  D(32,33,35,40)        176.072          D2E/DX2 =    0.0097             !
 ! D107  D(36,33,35,39)       -178.0695         D2E/DX2 =    0.0096             !
 ! D108  D(36,33,35,40)         -1.0461         D2E/DX2 =    0.0093             !
 ! D109  D(32,34,37,39)          0.8648         D2E/DX2 =    0.0092             !
 ! D110  D(32,34,37,41)       -177.1453         D2E/DX2 =    0.0102             !
 ! D111  D(38,34,37,39)        178.1247         D2E/DX2 =    0.0097             !
 ! D112  D(38,34,37,41)          0.1146         D2E/DX2 =    0.0099             !
 ! D113  D(33,35,39,37)         -0.8052         D2E/DX2 =    0.0092             !
 ! D114  D(33,35,39,42)        174.4412         D2E/DX2 =    0.0118             !
 ! D115  D(40,35,39,37)       -177.8216         D2E/DX2 =    0.0076             !
 ! D116  D(40,35,39,42)         -2.5751         D2E/DX2 =    0.0089             !
 ! D117  D(34,37,39,35)          0.8465         D2E/DX2 =    0.0092             !
 ! D118  D(34,37,39,42)       -174.474          D2E/DX2 =    0.0116             !
 ! D119  D(41,37,39,35)        178.8723         D2E/DX2 =    0.0081             !
 ! D120  D(41,37,39,42)          3.5517         D2E/DX2 =    0.0096             !
 ! D121  D(35,39,42,43)       -147.4339         D2E/DX2 =    0.0102             !
 ! D122  D(35,39,42,44)        -27.59           D2E/DX2 =    0.0104             !
 ! D123  D(35,39,42,72)         91.6003         D2E/DX2 =    0.0153             !
 ! D124  D(37,39,42,43)         27.7524         D2E/DX2 =    0.0106             !
 ! D125  D(37,39,42,44)        147.5963         D2E/DX2 =    0.0117             !
 ! D126  D(37,39,42,72)        -93.2134         D2E/DX2 =    0.0152             !
 ! D127  D(39,42,75,47)         68.4423         D2E/DX2 =    0.013              !
 ! D128  D(39,42,75,74)        157.5963         D2E/DX2 =    0.0235             !
 ! D129  D(39,42,75,86)        -77.9094         D2E/DX2 =    0.0113             !
 ! D130  D(39,42,75,95)         18.842          D2E/DX2 =    0.0082             !
 ! D131  D(44,42,75,47)        -50.0957         D2E/DX2 =    0.0115             !
 ! D132  D(44,42,75,74)         39.0582         D2E/DX2 =    0.0173             !
 ! D133  D(44,42,75,86)        163.5525         D2E/DX2 =    0.0076             !
 ! D134  D(44,42,75,95)        -99.696          D2E/DX2 =    0.008              !
 ! D135  D(72,42,75,47)       -162.2163         D2E/DX2 =    0.0158             !
 ! D136  D(72,42,75,74)        -73.0623         D2E/DX2 =    0.0263             !
 ! D137  D(72,42,75,86)         51.432          D2E/DX2 =    0.0093             !
 ! D138  D(72,42,75,95)        148.1834         D2E/DX2 =    0.0157             !
 ! D139  D(39,42,72,48)        169.4501         D2E/DX2 =    0.0175             !
 ! D140  D(39,42,72,52)         50.3013         D2E/DX2 =    0.0149             !
 ! D141  D(39,42,72,56)        -71.6891         D2E/DX2 =    0.0155             !
 ! D142  D(43,42,72,48)         46.0413         D2E/DX2 =    0.0154             !
 ! D143  D(43,42,72,52)        -73.1074         D2E/DX2 =    0.0123             !
 ! D144  D(43,42,72,56)        164.9021         D2E/DX2 =    0.0134             !
 ! D145  D(44,42,72,48)        -67.8763         D2E/DX2 =    0.0154             !
 ! D146  D(44,42,72,52)        172.9749         D2E/DX2 =    0.0137             !
 ! D147  D(44,42,72,56)         50.9845         D2E/DX2 =    0.0137             !
 ! D148  D(29,45,47,75)        -99.8423         D2E/DX2 =    0.0193             !
 ! D149  D(46,45,47,75)         22.0038         D2E/DX2 =    0.0216             !
 ! D150  D(73,45,47,75)        134.4926         D2E/DX2 =    0.0274             !
 ! D151  D(29,45,73,60)       -171.4869         D2E/DX2 =    0.0177             !
 ! D152  D(29,45,73,64)        -52.9045         D2E/DX2 =    0.0161             !
 ! D153  D(29,45,73,68)         69.3523         D2E/DX2 =    0.0159             !
 ! D154  D(46,45,73,60)         64.9196         D2E/DX2 =    0.0161             !
 ! D155  D(46,45,73,64)       -176.498          D2E/DX2 =    0.0149             !
 ! D156  D(46,45,73,68)        -54.2412         D2E/DX2 =    0.0145             !
 ! D157  D(47,45,73,60)        -49.193          D2E/DX2 =    0.0166             !
 ! D158  D(47,45,73,64)         69.3894         D2E/DX2 =    0.0125             !
 ! D159  D(47,45,73,68)       -168.3537         D2E/DX2 =    0.0145             !
 ! D160  D(45,47,75,43)         24.7179         D2E/DX2 =    0.0068             !
 ! D161  D(45,47,75,74)        -85.2631         D2E/DX2 =    0.0216             !
 ! D162  D(45,47,75,86)         87.6122         D2E/DX2 =    0.0086             !
 ! D163  D(45,47,75,95)        170.6905         D2E/DX2 =    0.0052             !
 ! D164  D(49,48,72,42)        176.7009         D2E/DX2 =    0.0149             !
 ! D165  D(49,48,72,52)        -62.3822         D2E/DX2 =    0.0147             !
 ! D166  D(49,48,72,56)         57.3597         D2E/DX2 =    0.0158             !
 ! D167  D(50,48,72,42)        -62.5549         D2E/DX2 =    0.0149             !
 ! D168  D(50,48,72,52)         58.3621         D2E/DX2 =    0.0156             !
 ! D169  D(50,48,72,56)        178.104          D2E/DX2 =    0.0165             !
 ! D170  D(51,48,72,42)         55.8873         D2E/DX2 =    0.0149             !
 ! D171  D(51,48,72,52)        176.8042         D2E/DX2 =    0.0152             !
 ! D172  D(51,48,72,56)        -63.4539         D2E/DX2 =    0.0159             !
 ! D173  D(53,52,84,85)       -101.2753         D2E/DX2 =    0.0159             !
 ! D174  D(53,52,84,86)        110.9785         D2E/DX2 =    0.0181             !
 ! D175  D(55,52,84,85)         26.1741         D2E/DX2 =    0.0138             !
 ! D176  D(55,52,84,86)       -121.5721         D2E/DX2 =    0.0178             !
 ! D177  D(72,52,84,85)        143.734          D2E/DX2 =    0.0145             !
 ! D178  D(72,52,84,86)         -4.0123         D2E/DX2 =    0.0112             !
 ! D179  D(53,52,72,42)        -64.9639         D2E/DX2 =    0.0151             !
 ! D180  D(53,52,72,48)        176.8037         D2E/DX2 =    0.0172             !
 ! D181  D(53,52,72,56)         57.2668         D2E/DX2 =    0.0153             !
 ! D182  D(54,52,72,42)         55.4851         D2E/DX2 =    0.0114             !
 ! D183  D(54,52,72,48)        -62.7473         D2E/DX2 =    0.0176             !
 ! D184  D(54,52,72,56)        177.7158         D2E/DX2 =    0.0167             !
 ! D185  D(55,52,72,42)        175.4757         D2E/DX2 =    0.0147             !
 ! D186  D(55,52,72,48)         57.2433         D2E/DX2 =    0.0167             !
 ! D187  D(55,52,72,56)        -62.2937         D2E/DX2 =    0.0157             !
 ! D188  D(57,56,72,42)        -59.1475         D2E/DX2 =    0.0158             !
 ! D189  D(57,56,72,48)         58.4674         D2E/DX2 =    0.0162             !
 ! D190  D(57,56,72,52)        177.7067         D2E/DX2 =    0.0142             !
 ! D191  D(58,56,72,42)         61.0452         D2E/DX2 =    0.0162             !
 ! D192  D(58,56,72,48)        178.6601         D2E/DX2 =    0.0167             !
 ! D193  D(58,56,72,52)        -62.1007         D2E/DX2 =    0.0141             !
 ! D194  D(59,56,72,42)       -178.9668         D2E/DX2 =    0.0158             !
 ! D195  D(59,56,72,48)        -61.352          D2E/DX2 =    0.0161             !
 ! D196  D(59,56,72,52)         57.8873         D2E/DX2 =    0.0138             !
 ! D197  D(61,60,73,45)       -175.8547         D2E/DX2 =    0.0151             !
 ! D198  D(61,60,73,64)         63.813          D2E/DX2 =    0.0146             !
 ! D199  D(61,60,73,68)        -56.2871         D2E/DX2 =    0.0153             !
 ! D200  D(62,60,73,45)        -55.2579         D2E/DX2 =    0.0148             !
 ! D201  D(62,60,73,64)       -175.5901         D2E/DX2 =    0.015              !
 ! D202  D(62,60,73,68)         64.3097         D2E/DX2 =    0.0153             !
 ! D203  D(63,60,73,45)         64.207          D2E/DX2 =    0.0159             !
 ! D204  D(63,60,73,64)        -56.1253         D2E/DX2 =    0.0157             !
 ! D205  D(63,60,73,68)       -176.2254         D2E/DX2 =    0.0165             !
 ! D206  D(66,64,65,93)       -102.0544         D2E/DX2 =    0.0278             !
 ! D207  D(67,64,65,93)        135.4836         D2E/DX2 =    0.0284             !
 ! D208  D(73,64,65,93)         17.289          D2E/DX2 =    0.015              !
 ! D209  D(65,64,73,45)        -53.0832         D2E/DX2 =    0.0132             !
 ! D210  D(65,64,73,60)         64.8287         D2E/DX2 =    0.0231             !
 ! D211  D(65,64,73,68)       -175.4013         D2E/DX2 =    0.0192             !
 ! D212  D(66,64,73,45)         67.1651         D2E/DX2 =    0.0146             !
 ! D213  D(66,64,73,60)       -174.923          D2E/DX2 =    0.0183             !
 ! D214  D(66,64,73,68)        -55.1531         D2E/DX2 =    0.0152             !
 ! D215  D(67,64,73,45)       -173.0742         D2E/DX2 =    0.0145             !
 ! D216  D(67,64,73,60)        -55.1624         D2E/DX2 =    0.0169             !
 ! D217  D(67,64,73,68)         64.6076         D2E/DX2 =    0.0153             !
 ! D218  D(64,65,93,94)       -107.3997         D2E/DX2 =    0.0226             !
 ! D219  D(64,65,93,95)         -2.3921         D2E/DX2 =    0.0148             !
 ! D220  D(69,68,73,45)        -60.4419         D2E/DX2 =    0.0152             !
 ! D221  D(69,68,73,60)       -178.3091         D2E/DX2 =    0.0164             !
 ! D222  D(69,68,73,64)         62.5271         D2E/DX2 =    0.0145             !
 ! D223  D(70,68,73,45)         59.7497         D2E/DX2 =    0.0151             !
 ! D224  D(70,68,73,60)        -58.1176         D2E/DX2 =    0.0159             !
 ! D225  D(70,68,73,64)       -177.2813         D2E/DX2 =    0.0146             !
 ! D226  D(71,68,73,45)        179.4004         D2E/DX2 =    0.015              !
 ! D227  D(71,68,73,60)         61.5331         D2E/DX2 =    0.0159             !
 ! D228  D(71,68,73,64)        -57.6306         D2E/DX2 =    0.0142             !
 ! D229  D(76,74,75,43)        178.1505         D2E/DX2 =    0.0136             !
 ! D230  D(76,74,75,47)        -95.8279         D2E/DX2 =    0.0116             !
 ! D231  D(76,74,75,86)         89.5125         D2E/DX2 =    0.0091             !
 ! D232  D(76,74,75,95)        -25.7795         D2E/DX2 =    0.0105             !
 ! D233  D(77,74,75,43)         -4.5401         D2E/DX2 =    0.0143             !
 ! D234  D(77,74,75,47)         81.4815         D2E/DX2 =    0.0183             !
 ! D235  D(77,74,75,86)        -93.1782         D2E/DX2 =    0.0152             !
 ! D236  D(77,74,75,95)        151.5299         D2E/DX2 =    0.0175             !
 ! D237  D(75,74,76,89)        150.993          D2E/DX2 =    0.0772             !
 ! D238  D(77,74,76,89)        -26.1898         D2E/DX2 =    0.0577             !
 ! D239  D(75,74,77,80)        -50.1919         D2E/DX2 =    0.019              !
 ! D240  D(75,74,77,82)        114.9481         D2E/DX2 =    0.0169             !
 ! D241  D(75,74,77,92)       -152.537          D2E/DX2 =    0.0164             !
 ! D242  D(76,74,77,80)        127.121          D2E/DX2 =    0.0226             !
 ! D243  D(76,74,77,82)        -67.739          D2E/DX2 =    0.0135             !
 ! D244  D(76,74,77,92)         24.7759         D2E/DX2 =    0.0113             !
 ! D245  D(43,75,84,54)        -15.5856         D2E/DX2 =    0.0063             !
 ! D246  D(43,75,84,85)       -176.9232         D2E/DX2 =    0.0047             !
 ! D247  D(47,75,84,54)        -78.1154         D2E/DX2 =    0.0054             !
 ! D248  D(47,75,84,85)        120.547          D2E/DX2 =    0.0054             !
 ! D249  D(74,75,84,54)         87.5935         D2E/DX2 =    0.0231             !
 ! D250  D(74,75,84,85)        -73.7441         D2E/DX2 =    0.0221             !
 ! D251  D(95,75,84,54)       -152.9962         D2E/DX2 =    0.0092             !
 ! D252  D(95,75,84,85)         45.6662         D2E/DX2 =    0.007              !
 ! D253  D(43,75,93,65)         65.712          D2E/DX2 =    0.0095             !
 ! D254  D(43,75,93,94)        168.0391         D2E/DX2 =    0.0057             !
 ! D255  D(47,75,93,65)         14.5659         D2E/DX2 =    0.0129             !
 ! D256  D(47,75,93,94)        116.893          D2E/DX2 =    0.0059             !
 ! D257  D(74,75,93,65)        -73.2873         D2E/DX2 =    0.0274             !
 ! D258  D(74,75,93,94)         29.0398         D2E/DX2 =    0.0112             !
 ! D259  D(86,75,93,65)        155.1944         D2E/DX2 =    0.015              !
 ! D260  D(86,75,93,94)       -102.4785         D2E/DX2 =    0.0041             !
 ! D261  D(74,76,87,88)         26.7087         D2E/DX2 =    0.0361             !
 ! D262  D(74,77,78,79)       -132.5776         D2E/DX2 =    0.0178             !
 ! D263  D(82,77,78,79)         57.5119         D2E/DX2 =    0.0086             !
 ! D264  D(92,77,78,79)         -9.7979         D2E/DX2 =    0.021              !
 ! D265  D(74,77,81,83)         30.9771         D2E/DX2 =    0.0093             !
 ! D266  D(80,77,81,83)       -162.1713         D2E/DX2 =    0.0089             !
 ! D267  D(92,77,81,83)        -91.8593         D2E/DX2 =    0.0187             !
 ! D268  D(74,77,90,91)       -121.5398         D2E/DX2 =    0.0133             !
 ! D269  D(80,77,90,91)        112.8576         D2E/DX2 =    0.0153             !
 ! D270  D(82,77,90,91)         -6.4556         D2E/DX2 =    0.0085             !
 --------------------------------------------------------------------------------
 Trust Radius=3.00D-01 FncErr=1.00D-07 GrdErr=1.00D-06 EigMax=2.50D+02 EigMin=1.00D-04
 Number of steps in this run=    565 maximum allowed number of steps=    570.
 GradGradGradGradGradGradGradGradGradGradGradGradGradGradGradGradGradGrad

 Leave Link  103 at Tue Mar 19 21:05:57 2024, MaxMem=  1744830464 cpu:               3.6 elap:               0.4
 (Enter /packages/apps/gaussian/g16/g16/l202.exe)
 Stoichiometry    C28H56N2O9
 Framework group  C1[X(C28H56N2O9)]
 Deg. of freedom   279
 Full point group                 C1      NOp   1
 Largest Abelian subgroup         C1      NOp   1
 Largest concise Abelian subgroup C1      NOp   1
                         Standard orientation:                         
 ---------------------------------------------------------------------
 Center     Atomic      Atomic             Coordinates (Angstroms)
 Number     Number       Type             X           Y           Z
 ---------------------------------------------------------------------
      1          6           0       -5.616969    3.563350    0.049705
      2          6           0       -5.728438    2.192614    0.706022
      3          1           0       -6.209761    4.302797    0.587872
      4          1           0       -4.583568    3.910437    0.029901
      5          1           0       -5.976259    3.532602   -0.981008
      6          6           0       -4.966756    1.084094   -0.040244
      7          1           0       -5.363071    2.245759    1.735411
      8          1           0       -6.780199    1.903720    0.769185
      9          6           0       -5.227673   -0.276374    0.630253
     10          1           0       -5.378439    1.032843   -1.053871
     11          1           0       -4.763094   -0.293916    1.620266
     12          1           0       -6.304102   -0.346869    0.806479
     13          6           0       -4.809819   -1.531137   -0.157388
     14          6           0       -5.478174   -2.778924    0.443626
     15          1           0       -5.189642   -1.419509   -1.178568
     16          1           0       -5.151490   -2.895879    1.480704
     17          1           0       -6.556307   -2.606102    0.480827
     18          6           0       -5.195538   -4.059655   -0.332203
     19          1           0       -5.726800   -4.905351    0.104068
     20          1           0       -5.515178   -3.964125   -1.371952
     21          1           0       -4.131097   -4.295605   -0.333451
     22          6           0       -3.307539   -1.705169   -0.252092
     23          6           0       -2.664280   -1.696018   -1.482311
     24          6           0       -2.527673   -1.846510    0.893954
     25          6           0       -1.282092   -1.767517   -1.566506
     26          1           0       -3.248505   -1.582379   -2.386947
     27          6           0       -1.149008   -1.915065    0.818272
     28          1           0       -2.998968   -1.855822    1.868728
     29          6           0       -0.506572   -1.866438   -0.418265
     30          1           0       -0.800177   -1.695932   -2.534198
     31          1           0       -0.557187   -1.967540    1.724428
     32          6           0       -3.496006    1.425562   -0.169240
     33          6           0       -2.920961    1.647727   -1.413834
     34          6           0       -2.676274    1.505134    0.954234
     35          6           0       -1.561024    1.887227   -1.539339
     36          1           0       -3.536621    1.586987   -2.302720
     37          6           0       -1.319285    1.744367    0.837804
     38          1           0       -3.093800    1.333867    1.938385
     39          6           0       -0.741676    1.930221   -0.417202
     40          1           0       -1.126852    1.993945   -2.526303
     41          1           0       -0.690091    1.756921    1.720512
     42          6           0        0.745553    2.064953   -0.541600
     43          1           0        1.255915    1.536936    0.268679
     44          1           0        1.102912    1.649677   -1.481803
     45          6           0        0.989063   -1.802494   -0.485948
     46          1           0        1.327785   -1.256528   -1.365598
     47          1           0        1.380169   -1.291541    0.391207
     48          6           0        2.756943    3.426070   -0.392123
     49          1           0        3.161297    4.434088   -0.433762
     50          1           0        2.998993    2.951537    0.552194
     51          1           0        3.151473    2.820152   -1.201268
     52          6           0        0.722633    4.264434    0.633798
     53          1           0       -0.351783    4.366819    0.513474
     54          1           0        0.952250    3.726737    1.553363
     55          1           0        1.193656    5.244924    0.637314
     56          6           0        0.918130    4.186179   -1.787153
     57          1           0        1.358406    3.636259   -2.615096
     58          1           0       -0.163294    4.214950   -1.887863
     59          1           0        1.315447    5.197938   -1.758892
     60          6           0        3.166352   -2.884878   -0.398798
     61          1           0        3.708323   -3.818858   -0.513012
     62          1           0        3.476652   -2.172237   -1.157612
     63          1           0        3.349844   -2.469955    0.587564
     64          6           0        1.261096   -4.039151    0.560403
     65          1           0        1.385978   -3.499480    1.500510
     66          1           0        0.219294   -4.307414    0.410820
     67          1           0        1.884667   -4.929808    0.540029
     68          6           0        1.442440   -3.797154   -1.855766
     69          1           0        0.373850   -3.956882   -1.972272
     70          1           0        1.813243   -3.147985   -2.645117
     71          1           0        1.967086   -4.748976   -1.881225
     72          7           0        1.268681    3.497844   -0.520727
     73          7           0        1.698157   -3.145918   -0.548805
     74          6           0        3.380654   -0.001681    1.203206
     75          8           0        2.166233    0.256528    1.594388
     76          8           0        4.143330   -0.733426    1.871403
     77          8           0        3.747232    0.496267    0.051396
     78          8           0        2.656383    0.307547   -2.373183
     79          1           0        3.491335    0.093667   -2.799989
     80          1           0        2.933607    0.398856   -1.429931
     81          8           0        5.667531    2.387251   -0.147841
     82          1           0        5.007275    1.685566    0.034652
     83          1           0        6.320504    2.295038    0.544741
     84          8           0        1.338944    2.302586    3.010950
     85          1           0        1.597837    2.223538    3.927397
     86          1           0        1.719480    1.509651    2.557551
     87          8           0        5.968427   -2.325220    0.470311
     88          1           0        6.104343   -1.835265   -0.346606
     89          1           0        5.450508   -1.711329    1.024987
     90          8           0        5.507076   -0.422715   -1.754485
     91          1           0        6.131505    0.302320   -1.815076
     92          1           0        4.936056   -0.163331   -0.994628
     93          8           0        1.654468   -1.980028    3.004116
     94          1           0        2.563966   -2.150073    3.260819
     95          1           0        1.755112   -1.096259    2.579418
 ---------------------------------------------------------------------
 Rotational constants (GHZ):           0.1199377           0.0658193           0.0507632
 Leave Link  202 at Tue Mar 19 21:05:59 2024, MaxMem=  1744830464 cpu:               6.6 elap:               0.6
 (Enter /packages/apps/gaussian/g16/g16/l301.exe)
 Standard basis: 6-311+G(2d,2p) (5D, 7F)
 Ernie: Thresh=  0.10000D-02 Tol=  0.10000D-05 Strict=F.
 There are  1635 symmetry adapted cartesian basis functions of A   symmetry.
 There are  1557 symmetry adapted basis functions of A   symmetry.
  1557 basis functions,  2254 primitive gaussians,  1635 cartesian basis functions
   155 alpha electrons      155 beta electrons
       nuclear repulsion energy      5379.8339771622 Hartrees.
 IExCor= 4639 DFT=T Ex+Corr=wB97XD ExCW=0 ScaHFX=  1.000000
 ScaDFX=  1.000000  1.000000  1.000000  1.000000 ScalE2=  1.000000  1.000000
 IRadAn=      5 IRanWt=     -1 IRanGd=            0 ICorTp=0 IEmpDi=121
 HFx  wShort=  0.000000 wLong=  0.200000 cFull=  0.222036 cShort=  0.000000 cLong=  0.777964
 DFx  wShort=  0.000000 wLong=  0.200000 cFull=  0.000000 cShort=  0.000000 cLong=  1.000000
 NAtoms=   95 NActive=   95 NUniq=   95 SFac= 1.00D+00 NAtFMM=   60 NAOKFM=T Big=T
 Integral buffers will be    131072 words long.
 Raffenetti 2 integral format.
 Two-electron integral symmetry is turned on.
 R6Disp:  Grimme-D2 Dispersion energy=       -0.1140071830 Hartrees.
 Nuclear repulsion after empirical dispersion term =     5379.7199699792 Hartrees.
 Leave Link  301 at Tue Mar 19 21:06:00 2024, MaxMem=  1744830464 cpu:               6.5 elap:               0.5
 (Enter /packages/apps/gaussian/g16/g16/l302.exe)
 NPDir=0 NMtPBC=     1 NCelOv=     1 NCel=       1 NClECP=     1 NCelD=      1
         NCelK=      1 NCelE2=     1 NClLst=     1 CellRange=     0.0.
 One-electron integrals computed using PRISM.
 One-electron integral symmetry used in STVInt
 NBasis=  1557 RedAO= T EigKep=  1.04D-06  NBF=  1557
 NBsUse=  1547 1.00D-06 EigRej=  9.48D-07 NBFU=  1547
 Precomputing XC quadrature grid using
 IXCGrd= 4 IRadAn=           5 IRanWt=          -1 IRanGd=           0 AccXCQ= 0.00D+00.
 Generated NRdTot=       0 NPtTot=           0 NUsed=           0 NTot=          32
 NSgBfM=  1492  1482  1489  1489  1492 MxSgAt=    95 MxSgA2=    95.
 Leave Link  302 at Tue Mar 19 21:06:31 2024, MaxMem=  1744830464 cpu:             587.1 elap:              30.0
 (Enter /packages/apps/gaussian/g16/g16/l303.exe)
 DipDrv:  MaxL=1.
 Leave Link  303 at Tue Mar 19 21:06:33 2024, MaxMem=  1744830464 cpu:              11.3 elap:               0.8
 (Enter /packages/apps/gaussian/g16/g16/l401.exe)
 Initial guess from the checkpoint file:  "6water-v3-ofreq.chk"
 B after Tr=    -0.000000    0.000000    0.000000
         Rot=    1.000000    0.000000   -0.000000    0.000000 Ang=   0.00 deg.
 Guess basis will be translated and rotated to current coordinates.
 JPrj=2 DoOrth=T DoCkMO=T.
 Leave Link  401 at Tue Mar 19 21:07:00 2024, MaxMem=  1744830464 cpu:             513.3 elap:              26.1
 (Enter /packages/apps/gaussian/g16/g16/l502.exe)
 Integral symmetry usage will be decided dynamically.
 Closed shell SCF:
 Using DIIS extrapolation, IDIIS=  1040.
 NGot=  1744830464 LenX=  1739403387 LenY=  1736728527
 Requested convergence on RMS density matrix=1.00D-08 within 128 cycles.
 Requested convergence on MAX density matrix=1.00D-06.
 Requested convergence on             energy=1.00D-06.
 No special actions if energy rises.
 Fock matrices will be formed incrementally for  20 cycles.

 Cycle   1  Pass 1  IDiag  1:
 FoFJK:  IHMeth= 1 ICntrl=       0 DoSepK=T KAlg= 0 I1Cent=           0 FoldK=F
 IRaf=         1 NMat=       1 IRICut=       1 DoRegI=T DoRafI=F ISym2E= 0 IDoP0=0 IntGTp=1.
 FoFCou: FMM=T IPFlag=           0 FMFlag=      100000 FMFlg1=        2001
         NFxFlg=           0 DoJE=T BraDBF=F KetDBF=F FulRan=T
         wScrn=  0.000000 ICntrl=       500 IOpCl=  0 I1Cent=           0 NGrid=           0
         NMat0=    1 NMatS0=      1 NMatT0=    0 NMatD0=    1 NMtDS0=    0 NMtDT0=    0
 Symmetry not used in FoFCou.
 FMM levels:  10  Number of levels for PrismC:   9
 E= -1887.37404831882    
 DIIS: error= 3.79D-08 at cycle   1 NSaved=   1.
 NSaved= 1 IEnMin= 1 EnMin= -1887.37404831882     IErMin= 1 ErrMin= 3.79D-08
 ErrMax= 3.79D-08  0.00D+00 EMaxC= 1.00D-01 BMatC= 1.34D-12 BMatP= 1.34D-12
[...]
 55,-0.00000377,0.00000100,0.00000703,0.00000562,-0.00001189,0.00000372
 ,0.00000921,-0.00000386,-0.00000687,0.00000081,-0.00000208,0.00000141,
 0.00000235,0.00000042,-0.00000229,-0.00000401,-0.00000108,-0.00000806,
 -0.00000323,0.00000252,-0.00000857,-0.00000808,0.00000108,0.00000309,-
 0.00000049,0.00000018,0.00000627,0.00000865,-0.00000300,-0.00003047,-0
 .00000947,0.00002756,-0.00000041,0.00000149,-0.00002816,-0.00003776,0.
 00000031,-0.00014509,-0.00000468,-0.00002623,-0.00004649,-0.00000001,0
 .00000939,-0.00000195,-0.00011461,0.00006347,0.00004116,0.00000213,0.0
 0001518,0.00000904,-0.00005132,-0.00008035,-0.00001929,-0.00000446,0.0
 0001775,-0.00001786,0.00040784,-0.00021630,0.00022535,0.00001036,0.000
 00325,-0.00000652,-0.00002224,-0.00001103,0.00000708,-0.00001550,-0.00
 000226,-0.00002235,-0.00001346,-0.00000333,0.00001845,-0.00000856,-0.0
 0000088,-0.00000637,-0.00000466,-0.00000851,0.00001064,0.00000005,0.00
 000094,0.00000736,0.00001814,0.00001740,-0.00002895,0.00000521,0.00000
 592,0.00000273,0.00003934,0.00002248,0.00000897,0.00000999,0.00006844,
 -0.00002977,0.00012279,-0.00014750,0.00013983,0.00000185,0.00000572,0.
 00000438,-0.00020117,0.00026319,0.00001164,0.00005969,-0.00002581,-0.0
 0001354,0.00009288,0.00015712,0.00006667,0.00003815,-0.00001506,0.0000
 2635,-0.00001590,0.00002270,-0.00000588,0.00000865,-0.00004703,-0.0000
 0216,0.00000140,-0.00002014,0.00002647,0.00000020,-0.00000823,-0.00001
 298,-0.00000874,0.00000631,-0.00000593,0.00002601,-0.00004773,0.000054
 06,0.00000401,0.00000268,-0.00000338,0.00000560,-0.00001253,0.00003517
 ,0.00000412,-0.00000168,0.00000274,-0.00000591,0.00000417,-0.00000377,
 0.00000177,0.00000435,-0.00000199,-0.00006847,-0.00026695,-0.00007771,
 0.00002295,-0.00005414,-0.00013192,0.00007020,0.00006847,0.00016197,0.
 00013537,0.00061450,-0.00010647,0.00046307,-0.00048085,-0.00063205,-0.
 00150786,0.00064436,-0.00049191,0.00002874,0.00008922,0.00028390,-0.00
 003253,-0.00020068,-0.00028030,-0.00002403,-0.00011478,0.00000396,-0.0
 0000515,0.00002811,-0.00000342,-0.00000955,0.00001795,0.00004531,0.000
 01570,-0.00002184,-0.00002748,-0.00005342,0.00001853,-0.00004353,0.000
 08366,-0.00009566,0.00016682,0.00200297,-0.00330619,0.00358145,-0.0028
 7844,0.00001387,-0.00042307,0.00058421,0.00108442,-0.00320855,-0.00013
 752,0.00093084,-0.00185068,-0.00011818,-0.00014086,-0.00033722,0.00000
 135,0.00004066,0.00003449,0.00017424,0.00008580,0.00047615,0.00019143,
 0.00015106,-0.00009464,-0.00023460,-0.00022273,0.00008510,-0.00005885,
 -0.00002374,0.00002295,-0.00028524,0.00030170,0.00002035,0.00009776,-0
 .00014577,-0.00005172,0.00030600,-0.00035552,-0.00006784,0.00016817,-0
 .00060824,-0.00013451,-0.00002999,0.00005618,0.00000902,-0.00048080,0.
 00077605,0.00031267,0.00016097,-0.00015349,-0.00020153,-0.00003183,0.0
 0000932,0.00003316,-0.00025127,0.00016141,0.00033298,0.05486119,-0.051
 25587,0.02997849,-0.09792779,0.06251468,-0.00000230,-0.00000355,-0.000
 00436,0.00000216,0.00000877,0.00001126,0.00000634,-0.00000639,-0.00000
 252,0.00000043,0.00000713,0.00000303,-0.00000225,0.00000139,0.00000017
 ,-0.00001269,-0.00000009,-0.00001078,-0.00000560,-0.00000089,-0.000001
 83,0.00000969,-0.00000144,-0.00000104,0.00001963,0.00000621,0.00001307
 ,0.00000260,0.00000086,0.00000032,-0.00000932,-0.00000060,0.00000111,0
 .00001577,-0.00000265,-0.00000331,-0.00002009,-0.00000076,-0.00002742,
 0.00000945,-0.00001322,0.00001407,0.00000029,0.00000042,0.00000020,-0.
 00000659,-0.00000028,-0.00000331,0.00001380,0.00000314,-0.00000215,-0.
 00000953,0.00000327,-0.00000439,0.00000830,0.00000754,-0.00000205,-0.0
 0000265,-0.00000149,-0.00000083,0.00000320,-0.00000935,0.00000433,-0.0
 0004371,0.00001756,0.00003186,0.00002782,-0.00000176,-0.00003971,-0.00
 001958,0.00001827,-0.00011317,0.00001823,-0.00000048,-0.00005001,0.000
 00960,-0.00000448,0.00000496,-0.00005467,-0.00002986,0.00031301,0.0000
 0521,-0.00000909,-0.00000873,-0.00000456,-0.00003278,0.00007614,-0.000
 00891,0.00001443,-0.00002443,0.00020002,-0.00004789,-0.00030548,-0.000
 00988,-0.00000398,0.00000487,0.00001361,0.00000370,-0.00001175,0.00000
 483,-0.00000478,0.00001499,0.00001288,-0.00000586,-0.00001623,0.000003
 70,0.00000546,0.00000309,0.00001231,-0.00001123,-0.00000044,0.00000424
 ,0.00000829,-0.00000310,-0.00001864,-0.00003629,0.00001219,-0.00000548
 ,0.00000557,-0.00000738,-0.00001216,0.00002190,0.00001832,0.00000822,-
 0.00001193,0.00004104,-0.00010266,0.00012705,-0.00008892,-0.00002564,0
 .00002251,-0.00000702,-0.00013848,0.00041785,-0.00009288,-0.00001161,-
 0.00007656,-0.00007367,-0.00033411,-0.00007529,0.00006384,-0.00003460,
 0.00000114,-0.00000379,0.00001416,-0.00002822,0.00000928,-0.00001249,0
 .00006247,0.00002714,-0.00000557,0.00003993,-0.00003189,-0.00001542,0.
 00002713,0.00003834,0.00000776,-0.00000119,-0.00000293,0.00000015,-0.0
 0000275,0.00002590,-0.00000326,-0.00000598,-0.00000010,-0.00000219,0.0
 0000314,-0.00002240,-0.00000289,0.00000649,-0.00000914,0.00000562,0.00
 000086,0.00000383,-0.00000444,-0.00000743,0.00000272,-0.00044278,-0.00
 040293,-0.00023117,0.00008573,0.00007137,0.00007191,0.00009981,0.00008
 762,0.00019563,0.00032034,0.00003273,-0.00098276,0.00050320,-0.0004661
 0,-0.00030512,-0.00150537,-0.00017846,-0.00061178,0.00005900,0.0001331
 9,0.00027467,-0.00005458,-0.00010448,-0.00009224,0.00009543,-0.0001223
 3,-0.00008954,0.00003007,0.00004631,0.00004044,-0.00002368,0.00001198,
 0.00000950,-0.00000741,-0.00002645,-0.00001521,0.00004465,-0.00003509,
 0.00000420,0.00008655,0.00005002,0.00013307,-0.00305771,0.00358780,-0.
 00288073,0.00254164,-0.00065890,-0.00060406,-0.00037567,-0.00373505,0.
 00100306,0.00031890,-0.00073803,0.00155983,0.00013113,-0.00009970,0.00
 030933,0.00000529,0.00003673,-0.00006044,-0.00016381,0.00005053,-0.000
 37880,-0.00018156,-0.00025639,-0.00000024,0.00026560,0.00032075,-0.000
 04806,0.00003875,0.00005236,0.00002896,0.00011348,-0.00026839,-0.00041
 804,0.00003910,-0.00012533,0.00007754,-0.00020626,0.00050430,0.0005367
 1,-0.00049908,0.00009727,0.00017996,0.00006013,0.00003114,-0.00007484,
 0.00057477,-0.00012908,-0.00021242,-0.00016410,-0.00005323,0.00021548,
 0.00003870,0.00002036,-0.00002745,0.00019981,0.00001232,-0.00022710,-0
 .11685520,0.03883444,-0.04975810,0.14147170,-0.04356292,0.05582303,0.0
 0000996,-0.00000338,-0.00000536,-0.00002288,-0.00000616,-0.00000227,0.
 00000440,-0.00000959,-0.00000246,-0.00000595,0.00000194,0.00000017,-0.
 00000006,0.00000032,0.00000586,0.00000335,0.00002502,0.00000763,0.0000
 0094,0.00000197,0.00000524,-0.00000348,0.00000246,0.00000370,-0.000005
 46,0.00004227,-0.00002236,-0.00000078,-0.00000197,0.00000755,-0.000011
 76,0.00000426,0.00001830,0.00002182,-0.00002063,0.00000112,-0.00005064
 ,0.00000221,0.00004514,0.00000531,-0.00002941,-0.00001710,0.00003711,-
 0.00000258,0.00001939,-0.00001255,-0.00000102,0.00001625,0.00002917,0.
 00001025,0.00000186,-0.00000784,0.00000238,-0.00000330,0.00001274,0.00
 001015,-0.00000770,-0.00000050,-0.00000387,0.00000919,0.00000219,-0.00
 002318,-0.00000265,0.00000700,-0.00004961,-0.00003107,0.00009469,-0.00
 000168,0.00009379,0.00007294,0.00004330,0.00045778,-0.00010827,-0.0000
 4267,0.00007635,0.00001391,0.00000328,0.00002932,-0.00025893,0.0004283
 8,-0.00086979,-0.00004953,0.00000241,-0.00002662,0.00024675,-0.0000292
 3,-0.00005633,0.00002258,-0.00000809,0.00008613,-0.00092065,-0.0009720
 8,-0.00009277,-0.00004393,0.00000182,-0.00003449,-0.00004026,-0.000045
 74,0.00004349,-0.00000629,-0.00004065,0.00001292,-0.00005587,-0.000016
 20,0.00007045,-0.00001901,0.00000986,-0.00000235,-0.00012907,-0.000112
 28,-0.00010435,-0.00005931,0.00002625,0.00002100,0.00017981,0.00006757
 ,-0.00012731,0.00001601,0.00002316,0.00003538,0.00007725,0.00021523,-0
 .00001129,-0.00004566,0.00035281,-0.00024199,0.00061540,-0.00055211,0.
 00052671,0.00000908,-0.00000812,0.00000116,-0.00011665,-0.00057279,-0.
 00023101,0.00010039,0.00021658,0.00016741,0.00109715,0.00039268,-0.000
 71872,0.00012626,-0.00003795,0.00006371,-0.00003687,0.00004760,-0.0000
 2721,0.00000658,-0.00015372,-0.00001716,0.00000799,-0.00004549,0.00005
 358,0.00003372,-0.00005792,-0.00004591,-0.00002027,0.00003741,-0.00000
 786,0.00003933,-0.00000885,-0.00000792,-0.00000685,-0.00000368,0.00000
 761,0.00001530,0.00000819,0.00005773,0.00001202,-0.00000216,0.00001518
 ,-0.00001198,0.00002469,-0.00001398,-0.00000170,0.00001104,-0.00001676
 ,0.00036674,0.00006348,0.00011810,-0.00005930,-0.00006967,-0.00008832,
 0.00000662,0.00002586,0.00004322,0.00001063,0.00053197,0.00030478,0.00
 011509,0.00012631,-0.00018177,-0.00015628,-0.00025013,0.00007872,-0.00
 001369,-0.00005932,0.00004774,-0.00002295,0.00001935,0.00002753,-0.000
 08941,0.00003694,-0.00001378,-0.00002062,-0.00004949,-0.00003758,0.000
 02228,-0.00000459,0.00001864,0.00000460,0.00002747,0.00000926,-0.00019
 212,-0.00000373,-0.00008850,-0.00018677,-0.00003509,-0.00004454,-0.003
 53558,-0.00766437,0.00931119,-0.00935782,0.00778150,-0.00469404,0.0013
 1442,0.00107163,-0.00204067,0.00035802,0.00107968,-0.00255238,-0.00032
 876,-0.00014291,-0.00052585,0.00003605,0.00000898,0.00007146,0.0003276
 4,0.00009653,0.00081835,0.00027454,0.00033919,-0.00010402,-0.00039269,
 -0.00043471,0.00012159,-0.00007003,-0.00006243,0.00000839,-0.00112477,
 0.00029666,0.00081206,0.00025282,0.00016874,-0.00003260,0.00154325,-0.
 00099643,-0.00133453,0.00038024,-0.00055618,-0.00040373,-0.00003881,0.
 00002780,0.00010216,-0.00068812,0.00072799,0.00047045,0.00019679,-0.00
 008413,-0.00041055,-0.00003908,-0.00001287,0.00005712,-0.00034287,0.00
 014559,0.00051431,-0.05610393,-0.06127220,0.02220221,-0.00336126,0.044
 46698,-0.02308456,0.07004695,0.00003813,0.00000058,-0.00000205,-0.0000
 5269,-0.00006130,0.00000336,-0.00001042,-0.00000346,0.00000994,-0.0000
 1711,-0.00003138,0.00000076,0.00000137,-0.00000531,-0.00000391,0.00008
 278,0.00006976,0.00000962,0.00002308,0.00000826,-0.00000978,-0.0000586
 9,0.00001390,0.00000974,-0.00003703,0.00011168,-0.00001778,-0.00003817
 ,-0.00001044,-0.00000962,0.00000783,0.00001805,0.00000679,-0.00000788,
 -0.00005927,0.00000303,-0.00005816,0.00004809,0.00004911,0.00003239,-0
 .00002372,-0.00004804,0.00004600,-0.00000673,0.00002484,-0.00001796,0.
 00000524,0.00002913,0.00004150,0.00000640,0.00000101,-0.00004290,-0.00
 001168,0.00001086,-0.00000494,-0.00001317,-0.00001035,0.00001023,-0.00
 000666,0.00001484,0.00002264,-0.00001148,-0.00001858,0.00001965,0.0000
 1946,-0.00004884,0.00009386,-0.00002752,0.00006626,0.00015986,-0.00012
 944,0.00045786,-0.00008804,-0.00004161,0.00006225,0.00003166,0.0000240
 6,0.00004826,-0.00014180,-0.00010920,-0.00070451,-0.00005818,0.0000675
 4,-0.00004361,0.00025763,-0.00021074,-0.00000999,0.00000989,0.00005755
 ,0.00007608,-0.00117432,0.00031390,-0.00041533,0.00002166,-0.00000163,
 -0.00004956,-0.00017836,-0.00011382,0.00000253,-0.00007348,-0.00004006
 ,-0.00020394,-0.00008924,-0.00006240,0.00011872,-0.00006344,0.00001657
 ,-0.00004080,0.00003183,0.00001209,0.00023576,-0.00003154,0.00003912,0
 .00006311,0.00015638,0.00017266,-0.00025490,0.00002504,0.00005145,0.00
 001102,0.00030782,-0.00004925,-0.00000576,-0.00009279,0.00052475,-0.00
 034508,0.00123084,-0.00149455,0.00151210,-0.00004882,0.00010299,-0.000
 02697,-0.00082839,-0.00070799,-0.00029745,0.00032091,0.00035388,0.0003
 5105,0.00084746,0.00281815,0.00008865,0.00014096,-0.00011112,0.0001815
 0,-0.00007041,0.00011766,-0.00007041,-0.00009283,-0.00038822,0.0000422
 1,-0.00002051,-0.00006039,0.00008231,0.00006089,-0.00007988,-0.0000832
 1,-0.00004169,0.00003816,-0.00003593,0.00011666,-0.00026988,0.00024275
 ,0.00000582,0.00003619,-0.00002396,0.00007477,0.00000340,0.00021192,0.
 00001192,-0.00000459,0.00001766,-0.00002396,0.00002343,-0.00001900,0.0
 0000157,0.00004856,-0.00003934,0.00011289,-0.00030135,-0.00031019,0.00
 003349,-0.00005326,0.00001519,0.00006131,0.00023726,0.00036782,0.00081
 338,0.00065562,-0.00036042,0.00025292,0.00073585,-0.00047198,-0.000437
 73,-0.00237165,-0.00189183,-0.00000063,0.00007898,0.00028968,-0.000009
 69,0.00006869,0.00028655,-0.00006646,-0.00035232,-0.00004511,-0.000021
 39,0.00003636,-0.00002882,0.00000971,0.00002530,0.00014656,0.00004306,
 -0.00003635,-0.00007689,-0.00032202,0.00007925,-0.00030822,-0.00021451
 ,-0.00035455,-0.00024901,-0.02746437,0.01155676,0.00349736,0.01516118,
 0.00226107,-0.01218358,0.00679010,-0.00904498,0.00417611,0.00779166,-0
 .00061306,-0.00680315,-0.00043759,-0.00062063,-0.00103984,0.00003060,0
 .00012335,0.00014494,0.00054690,0.00032417,0.00170303,0.00085970,0.000
 64906,-0.00021326,-0.00106754,-0.00093132,0.00014783,-0.00014975,-0.00
 001959,0.00000154,-0.00117628,0.00289702,0.00134478,0.00002218,-0.0001
 8509,-0.00045876,0.00125248,-0.00534551,-0.00200403,0.00021831,-0.0009
 7067,-0.00025427,-0.00004580,0.00024039,-0.00004983,-0.00071830,0.0010
 5050,0.00044444,0.00090160,-0.00066187,-0.00102464,-0.00012209,0.00001
 377,0.00007777,-0.00132875,0.00083574,0.00142802,-0.01641865,-0.331482
 10,0.15389070,-0.00117206,-0.01017607,0.00657770,0.01550287,0.34067460
 ,-0.00001360,-0.00000715,-0.00000938,0.00002273,0.00003080,0.00002744,
 0.00001294,-0.00000841,-0.00000529,0.00000533,0.00001926,0.00000643,-0
 .00000483,0.00000385,-0.00000128,-0.00004224,-0.00001797,-0.00002675,-
 0.00001331,-0.00000499,-0.00000573,0.00002963,-0.00000731,-0.00000663,
 0.00005512,-0.00001102,0.00004475,0.00001066,0.00000519,-0.00000206,-0
 .00001780,-0.00000584,-0.00000543,0.00002791,0.00000749,-0.00001137,-0
 .00002774,-0.00000096,-0.00003711,0.00001677,-0.00003035,0.00004665,-0
 .00000098,-0.00000016,-0.00000948,-0.00000397,0.00000026,-0.00001777,0
 .00001227,0.00001274,-0.00000647,0.00000896,0.00001173,-0.00001527,0.0
 0001884,0.00001741,0.00000003,-0.00001046,-0.00000095,-0.00000858,-0.0
 0000639,-0.00001912,0.00001556,0.00005160,-0.00002313,0.00009367,0.000
 11416,-0.00003597,-0.00007888,-0.00004700,0.00005161,-0.00000037,0.000
 15813,0.00005364,-0.00018966,0.00003295,-0.00001712,-0.00000449,0.0002
 9200,0.00014598,-0.00002170,0.00011098,-0.00001547,-0.00000883,-0.0004
 5365,0.00025770,0.00019375,-0.00003578,-0.00000468,-0.00005173,-0.0000
 6134,-0.00031727,0.00067387,0.00000349,-0.00000764,0.00004764,0.000090
 66,0.00005088,-0.00004701,-0.00002423,-0.00000196,0.00007917,0.0000568
 6,0.00000525,-0.00011614,0.00002802,0.00000643,0.00001019,0.00009116,-
 0.00000410,-0.00002217,0.00006093,-0.00000537,-0.00002191,-0.00015414,
 -0.00014495,0.00012231,-0.00002020,-0.00000702,-0.00002806,-0.00010314
 ,-0.00000380,0.00014565,0.00008279,-0.00015781,0.00022991,-0.00075049,
 0.00092610,-0.00085935,0.00000363,-0.00001332,-0.00000262,-0.00018466,
 -0.00079474,-0.00028952,0.00007394,0.00023718,0.00017781,-0.00095718,-
 0.00118325,-0.00385700,-0.00010529,0.00003689,-0.00009183,0.00004306,-
 0.00008764,0.00005501,0.00003201,0.00031192,0.00000904,0.00001015,0.00
 007363,-0.00007144,-0.00007802,0.00009512,0.00010333,0.00002364,-0.000
 01544,0.00000079,-0.00001459,0.00001290,0.00007834,-0.00000216,-0.0000
 2260,-0.00000777,-0.00003029,-0.00002999,-0.00012261,-0.00000620,0.000
 01183,-0.00002853,0.00001719,-0.00000611,0.00001589,-0.00000672,-0.000
 03583,0.00002669,-0.00015694,0.00010877,-0.00019066,-0.00000389,0.0001
 4677,0.00017706,0.00003799,-0.00008012,-0.00015314,0.00014267,-0.00068
 009,-0.00000188,-0.00048123,-0.00080954,-0.00063767,0.00042770,0.00067
 899,0.00265555,-0.00000086,-0.00004444,-0.00020301,0.00003902,0.000057
 00,-0.00005960,0.00000387,0.00037056,-0.00025084,0.00003864,-0.0000276
 6,0.00005056,0.00000641,-0.00002438,-0.00015667,-0.00003686,0.00008965
 ,0.00011343,0.00019222,-0.00006815,0.00012060,0.00016609,-0.00007628,-
 0.00009171,0.01864995,-0.00393778,-0.00442755,-0.00967555,-0.00924703,
 -0.00124811,-0.00468320,0.00421818,-0.00385909,-0.00357475,0.00062702,
 0.00428643,0.00016489,0.00005665,0.00072460,0.00001990,-0.00004492,-0.
 00011780,-0.00029987,0.00001007,-0.00100861,-0.00054667,-0.00050267,0.
 00007815,0.00075776,0.00066914,-0.00010790,0.00008788,0.00004582,0.000
 03506,0.00118205,-0.00076626,-0.00205017,-0.00013499,-0.00070848,0.000
 03846,-0.00160894,0.00193406,0.00329280,-0.00037542,0.00051548,0.00007
 897,0.00009266,-0.00010391,0.00002302,0.00056098,-0.00058348,-0.000221
 45,-0.00064098,0.00028980,0.00061516,0.00008258,0.00001532,-0.00003953
 ,0.00089679,-0.00038201,-0.00084086,0.00022563,0.14101600,-0.09156625,
 -0.00126477,0.01587408,-0.00320716,0.00128714,-0.14797250,0.10203614\\
 -0.00000016,-0.00000051,-0.00000035,0.00000002,0.00000006,0.00000051,-
 0.00000020,0.00000015,0.00000049,0.00000024,0.00000005,0.00000026,0.,0
 .00000004,0.00000062,0.00000006,-0.00000007,0.00000007,-0.00000004,-0.
 00000009,0.00000008,0.00000002,0.00000001,0.00000031,0.00000034,-0.000
 00038,0.00000036,-0.00000002,0.00000001,0.00000031,0.,0.00000003,0.000
 00013,-0.00000014,-0.00000004,0.00000033,0.00000007,-0.00000015,0.0000
 0041,-0.00000008,0.00000017,0.00000047,-0.00000015,0.00000006,-0.00000
 015,0.00000006,-0.00000011,-0.00000002,0.00000005,-0.00000007,0.000000
 25,0.00000046,0.00000003,0.00000017,-0.00000009,-0.00000015,0.00000022
 ,-0.00000008,-0.00000007,0.00000021,-0.00000013,0.,0.00000010,-0.00000
 040,0.00000024,0.00000062,0.00000002,-0.00000012,-0.00000042,0.0000008
 2,-0.00000014,-0.00000010,0.00000064,0.,0.00000040,-0.00000015,0.00000
 006,0.00000011,-0.00000022,-0.00000003,0.00000018,0.,0.,0.00000023,-0.
 00000036,0.00000008,-0.00000014,-0.00000024,-0.00000003,0.,0.00000011,
 -0.00000003,-0.00000010,0.00000014,0.00000020,-0.00000060,-0.00000011,
 -0.00000010,0.00000042,-0.00000040,-0.00000022,0.00000078,-0.00000019,
 -0.00000001,0.00000011,-0.00000006,0.,0.00000028,0.00000074,0.,0.00000
 042,0.00000018,0.,-0.00000014,0.00000017,0.00000021,-0.00000054,-0.000
 00016,-0.00000004,0.00000030,-0.00000014,-0.00000004,-0.00000013,-0.00
 000061,0.,0.00000045,0.00000018,-0.00000007,-0.00000007,0.00000006,-0.
 00000007,-0.00000031,0.00000025,0.00000014,0.00000037,-0.00000004,-0.0
 0000004,-0.00000007,-0.00000032,0.00000017,-0.00000043,0.00000023,0.00
 000001,0.00000037,-0.00000009,-0.00000006,-0.00000011,0.00000029,-0.00
 000015,-0.00000067,-0.00000019,0.00000015,-0.00000034,-0.00000008,0.00
 000013,0.00000067,0.00000002,-0.00000015,-0.00000005,0.00000006,0.0000
 0028,-0.00000034,0.00000002,-0.00000021,-0.00000004,-0.00000033,-0.000
 00035,-0.00000016,-0.00000017,0.00000010,0.00000007,0.00000023,0.00000
 009,0.00000016,-0.00000017,-0.00000003,0.00000004,-0.00000014,-0.00000
 031,-0.00000053,0.00000010,0.00000019,-0.00000022,-0.00000017,-0.00000
 023,0.,0.00000004,0.00000010,0.00000005,-0.00000008,0.00000008,-0.0000
 0006,0.00000039,0.00000008,0.00000004,-0.00000009,-0.00000004,-0.00000
 018,0.00000020,-0.00000004,-0.00000008,0.00000052,-0.00000010,0.000000
 16,-0.00000016,0.00000008,-0.00000012,-0.00000022,0.00000005,-0.000000
 21,-0.00000021,0.00000022,-0.00000017,-0.00000034,0.00000047,-0.000000
 53,-0.00000034,-0.00000006,-0.00000047,-0.00000063,0.00000006,0.000000
 43,0.00000064,0.00000017,-0.00000027,0.00000027,-0.00000005,-0.0000002
 8,-0.00000021,0.00000011,-0.00000044,-0.00000022,0.00000014,0.00000029
 ,0.00000003,-0.00000009,-0.00000014,-0.00000004,0.00000011,-0.00000051
 ,-0.00000004,0.00000014,0.00000056,0.00000041,0.00000041,-0.00000028,-
 0.00000033,0.00000027,-0.00000051,0.00000053,-0.00000064,0.00000032,-0
 .00000011,0.00000015,-0.00000027,-0.00000018,0.00000021,-0.00000005,-0
 .00000025,0.00000033,0.00000009,0.00000002,0.00000011,-0.00000053,0.00
 000027,-0.00000029,-0.00000048,-0.00000020,0.00000075,0.00000046,-0.00
 000007,-0.00000143,-0.00000121,0.00000020,0.00000026,-0.00000025,0.000
 00062,0.00000043,-0.00000068,0.00000004,-0.00000028,-0.00000006,-0.000
 00015,-0.00000033,0.00000012\\\@


 IF YOU'RE NOT PART OF THE SOLUTION,
 THEN YOU'RE PART OF THE PRECIPITATE.
 Job cpu time:      37 days 19 hours 16 minutes  1.5 seconds.
 Elapsed time:       1 days 22 hours 33 minutes 32.6 seconds.
 File lengths (MBytes):  RWF=  51446 Int=      0 D2E=      0 Chk=    195 Scr=      1
 Normal termination of Gaussian 16 at Thu Mar 21 19:56:24 2024.
