 Entering Gaussian System, Link 0=g16
 Input=8water-ofreq.gjf
 Output=8water-ofreq.log
 Initial command:
 /packages/apps/gaussian/g16/g16/l1.exe "/scratch/mdturne9/3-5-methyl/oFreq/Gau-4087485.inp" -scrdir="/scratch/mdturne9/3-5-methyl/oFreq/"
 Entering Link 1 = /packages/apps/gaussian/g16/g16/l1.exe PID=   4087486.
  
 Copyright (c) 1988,1990,1992,1993,1995,1998,2003,2009,2016,
            Gaussian, Inc.  All Rights Reserved.
  
 This is part of the Gaussian(R) 16 program.  It is based on
 the Gaussian(R) 09 system (copyright 2009, Gaussian, Inc.),
 the Gaussian(R) 03 system (copyright 2003, Gaussian, Inc.),
 the Gaussian(R) 98 system (copyright 1998, Gaussian, Inc.),
 the Gaussian(R) 94 system (copyright 1995, Gaussian, Inc.),
 the Gaussian 92(TM) system (copyright 1992, Gaussian, Inc.),
 the Gaussian 90(TM) system (copyright 1990, Gaussian, Inc.),
 the Gaussian 88(TM) system (copyright 1988, Gaussian, Inc.),
 the Gaussian 86(TM) system (copyright 1986, Carnegie Mellon
 University), and the Gaussian 82(TM) system (copyright 1983,
 Carnegie Mellon University). Gaussian is a federally registered
 trademark of Gaussian, Inc.
  
 This software contains proprietary and confidential information,
 including trade secrets, belonging to Gaussian, Inc.
  
 This software is provided under written license and may be
 used, copied, transmitted, or stored only in accord with that
 written license.
  
 The following legend is applicable only to US Government
 contracts under FAR:
  
                    RESTRICTED RIGHTS LEGEND
  
 Use, reproduction and disclosure by the US Government is
 subject to restrictions as set forth in subparagraphs (a)
 and (c) of the Commercial Computer Software - Restricted
 Rights clause in FAR 52.227-19.
  
 Gaussian, Inc.
 340 Quinnipiac St., Bldg. 40, Wallingford CT 06492
  
  
 ---------------------------------------------------------------
 Warning -- This program may not be used in any manner that
 competes with the business of Gaussian, Inc. or will provide
 assistance to any competitor of Gaussian, Inc.  The licensee
 of this program is prohibited from giving any competitor of
 Gaussian, Inc. access to this program.  By using this program,
 the user acknowledges that Gaussian, Inc. is engaged in the
 business of creating and licensing software in the field of
 computational chemistry and represents and warrants to the
 licensee that it is not a competitor of Gaussian, Inc. and that
 it will not use this program in any manner prohibited above.
 ---------------------------------------------------------------
  

 Cite this work as:
 Gaussian 16, Revision A.03,
 M. J. Frisch, G. W. Trucks, H. B. Schlegel, G. E. Scuseria, 
 M. A. Robb, J. R. Cheeseman, G. Scalmani, V. Barone, 
 G. A. Petersson, H. Nakatsuji, X. Li, M. Caricato, A. V. Marenich, 
 J. Bloino, B. G. Janesko, R. Gomperts, B. Mennucci, H. P. Hratchian, 
 J. V. Ortiz, A. F. Izmaylov, J. L. Sonnenberg, D. Williams-Young, 
 F. Ding, F. Lipparini, F. Egidi, J. Goings, B. Peng, A. Petrone, 
 T. Henderson, D. Ranasinghe, V. G. Zakrzewski, J. Gao, N. Rega, 
 G. Zheng, W. Liang, M. Hada, M. Ehara, K. Toyota, R. Fukuda, 
 J. Hasegawa, M. Ishida, T. Nakajima, Y. Honda, O. Kitao, H. Nakai, 
 T. Vreven, K. Throssell, J. A. Montgomery, Jr., J. E. Peralta, 
 F. Ogliaro, M. J. Bearpark, J. J. Heyd, E. N. Brothers, K. N. Kudin, 
 V. N. Staroverov, T. A. Keith, R. Kobayashi, J. Normand, 
 K. Raghavachari, A. P. Rendell, J. C. Burant, S. S. Iyengar, 
 J. Tomasi, M. Cossi, J. M. Millam, M. Klene, C. Adamo, R. Cammi, 
 J. W. Ochterski, R. L. Martin, K. Morokuma, O. Farkas, 
 J. B. Foresman, and D. J. Fox, Gaussian, Inc., Wallingford CT, 2016.
 
 ******************************************
 Gaussian 16:  ES64L-G16RevA.03 25-Dec-2016
                16-Mar-2024 
 ******************************************
 %nprocshared=20
 Will use up to   20 processors via shared memory.
 %mem=14GB
 %chk=8water-ofreq.chk
 ---------------------------------------------------
 #p opt freq wb97xd/6-311+g(2d,2p) geom=connectivity
 ---------------------------------------------------
 1/18=20,19=15,26=3,38=1,57=2/1,3;
 2/9=110,12=2,17=6,18=5,40=1/2;
 3/5=4,6=6,7=212,11=2,25=1,30=1,71=1,74=-58/1,2,3;
 4//1;
 5/5=2,38=5/2;
 6/7=2,8=2,9=2,10=2,28=1/1;
 7//1,2,3,16;
 1/18=20,19=15,26=3/3(2);
 2/9=110/2;
 99//99;
 2/9=110/2;
 3/5=4,6=6,7=212,11=2,25=1,30=1,71=1,74=-58/1,2,3;
 4/5=5,16=3,69=1/1;
 5/5=2,38=5/2;
 7//1,2,3,16;
 1/18=20,19=15,26=3/3(-5);
 2/9=110/2;
 6/7=2,8=2,9=2,10=2,19=2,28=1/1;
 99/9=1/99;
 Leave Link    1 at Sat Mar 16 16:07:01 2024, MaxMem=  1879048192 cpu:               1.8 elap:               0.2
 (Enter /packages/apps/gaussian/g16/g16/l101.exe)
 ----------------------
 8w carbonate ropt freq
 ----------------------
 Symbolic Z-matrix:
 Charge =  0 Multiplicity = 1
 C                     5.13129  -4.38547   0.78479 
 C                     5.53889  -2.97811   1.20353 
 H                     5.47753  -5.12329   1.50822 
 H                     4.0477   -4.47658   0.70459 
 H                     5.55893  -4.64315  -0.1863 
 C                     5.13396  -1.8899    0.1955 
 H                     5.101    -2.74206   2.17733 
 H                     6.6226   -2.9366    1.3368 
 C                     5.71704  -0.53277   0.62411 
 H                     5.59559  -2.14728  -0.76364 
 H                     5.33382  -0.26126   1.61184 
 H                     6.79317  -0.67636   0.7501 
 C                     5.50175   0.64213  -0.35048 
 C                     6.59258   1.70753  -0.16032 
 H                     5.60326   0.25376  -1.36924 
 H                     6.56478   2.07584   0.86905 
 H                     7.56479   1.22448  -0.28239 
 C                     6.48079   2.87686  -1.13097 
 H                     7.30125   3.58063  -0.99182 
 H                     6.51083   2.52802  -2.16515 
 H                     5.54493   3.41894  -0.99243 
 C                     4.11031   1.23005  -0.22743 
 C                     3.18423   1.09547  -1.25483 
 C                     3.70095   1.859     0.9452 
 C                     1.86999   1.49875  -1.09583 
 H                     3.47881   0.60206  -2.17159 
 C                     2.39482   2.29214   1.10102 
 H                     4.39709   1.9794    1.76583 
 C                     1.45834   2.10265   0.08908 
 H                     1.14126   1.29586  -1.87139 
 H                     2.08537   2.73443   2.04036 
 C                     3.63484  -1.87987  -0.02421 
 C                     3.09825  -2.21595  -1.261 
 C                     2.75439  -1.53113   0.9983 
 C                     1.72921  -2.17844  -1.48252 
 H                     3.7626   -2.48185  -2.07408 
 C                     1.38789  -1.50006   0.78624 
 H                     3.14082  -1.25107   1.96983 
 C                     0.85559  -1.82669  -0.46093 
 H                     1.34321  -2.39339  -2.4715 
 H                     0.72102  -1.20775   1.58917 
 C                    -0.62332  -1.72573  -0.68469 
 H                    -1.06835  -1.00724   0.00305 
 H                    -0.85187  -1.38391  -1.69265 
 C                     0.00923   2.39841   0.3256 
 H                    -0.62681   1.63703  -0.11432 
 H                    -0.21729   2.41599   1.38885 
 C                    -2.85144  -2.68018  -0.44483 
 H                    -3.43537  -3.59523  -0.41844 
 H                    -3.03277  -2.10685   0.45874 
 H                    -3.11179  -2.09771  -1.32512 
 C                    -1.02445  -3.70413   0.7805 
 H                     0.01933  -4.0004    0.73452 
 H                    -1.20258  -3.01417   1.60624 
 H                    -1.65933  -4.58093   0.88555 
 C                    -1.15006  -3.94214  -1.63538 
 H                    -1.47243  -3.45436  -2.55174 
 H                    -0.0905   -4.17734  -1.6835 
 H                    -1.72462  -4.85206  -1.48202 
 C                    -1.9929    3.73425  -0.05523 
 H                    -2.36296   4.70075  -0.39017 
 H                    -2.40798   2.93115  -0.66242 
 H                    -2.23541   3.56506   0.99258 
 C                     0.07744   4.84143   0.58539 
 H                    -0.23468   4.72255   1.62005 
 H                     1.16109   4.80171   0.5108 
 H                    -0.28991   5.78547   0.19013 
 C                    -0.16834   3.89879  -1.64841 
 H                     0.9092    3.97729  -1.75774 
 H                    -0.53933   3.02937  -2.19043 
 H                    -0.64767   4.80846  -2.00237 
 N                    -1.39505  -3.02603  -0.49485 
 N                    -0.50184   3.7293   -0.20826 
 C                    -3.21846   0.53246   0.19082 
 O                    -2.13403   0.48961   0.88349 
 O                    -4.35098   0.32492   0.75229 
 O                    -3.15049   0.7809   -1.06517 
 O                    -1.07354   0.89455  -2.63181 
 H                    -1.48624   0.81069  -3.49111 
 H                    -1.83367   0.83352  -1.98489 
 O                    -5.65269  -2.01778  -0.12552 
 H                    -5.24226  -1.22789   0.26798 
 H                    -6.60252  -1.82704  -0.08901 
 O                    -1.79406  -1.3925    2.7657 
 H                    -2.50302  -1.20166   3.38857 
 H                    -1.91677  -0.67441   2.10903 
 O                    -6.43929   1.14904  -0.91966 
 H                    -6.11908   0.7855   -1.75371 
 H                    -5.69526   0.97674  -0.30831 
 O                    -4.80821  -0.75602  -2.60425 
 H                    -5.21739  -1.31405  -1.92657 
 H                    -4.22518  -0.16548  -2.08817 
 O                    -2.05192   2.36595   2.85157 
 H                    -2.7053    2.07728   3.49534 
 H                    -2.09795   1.64711   2.18821 
 O                    -4.10092   0.27721   3.45448 
 H                    -4.98356   0.18016   3.8079 
 H                    -4.21273   0.29151   2.47231 
 O                    -8.20765  -0.79705  -0.18539 
 H                    -7.67209  -0.01727  -0.44756 
 H                    -8.66374  -0.54164   0.61449 
 
 Add virtual bond connecting atoms H80        and O77        Dist= 3.04D+00.
 Add virtual bond connecting atoms H86        and O75        Dist= 3.22D+00.
 Add virtual bond connecting atoms H98        and O76        Dist= 3.26D+00.
 Add virtual bond connecting atoms H95        and O75        Dist= 3.30D+00.
 Add virtual bond connecting atoms H92        and O77        Dist= 3.33D+00.
 Add virtual bond connecting atoms H100       and O87        Dist= 3.33D+00.
 Add virtual bond connecting atoms H89        and O76        Dist= 3.46D+00.
 Add virtual bond connecting atoms O81        and H91        Dist= 3.75D+00.
 Add virtual bond connecting atoms H82        and O76        Dist= 3.51D+00.
 Add virtual bond connecting atoms H83        and O99        Dist= 3.61D+00.
 Add virtual bond connecting atoms O75        and H43        Dist= 3.85D+00.
 Add virtual bond connecting atoms O75        and H46        Dist= 4.05D+00.
 Add virtual bond connecting atoms O84        and H54        Dist= 3.93D+00.
 Add virtual bond connecting atoms H95        and H47        Dist= 4.13D+00.
 ITRead=  0  0  0  0  0  0  0  0  0  0  0  0  0  0  0  0  0  0  0  0
 ITRead=  0  0  0  0  0  0  0  0  0  0  0  0  0  0  0  0  0  0  0  0
 ITRead=  0  0  0  0  0  0  0  0  0  0  0  0  0  0  0  0  0  0  0  0
 ITRead=  0  0  0  0  0  0  0  0  0  0  0  0  0  0  0  0  0  0  0  0
 ITRead=  0  0  0  0  0  0  0  0  0  0  0  0  0  0  0  0  0  0  0  0
 ITRead=  0
 MicOpt= -1 -1 -1 -1 -1 -1 -1 -1 -1 -1 -1 -1 -1 -1 -1 -1 -1 -1 -1 -1
 MicOpt= -1 -1 -1 -1 -1 -1 -1 -1 -1 -1 -1 -1 -1 -1 -1 -1 -1 -1 -1 -1
 MicOpt= -1 -1 -1 -1 -1 -1 -1 -1 -1 -1 -1 -1 -1 -1 -1 -1 -1 -1 -1 -1
 MicOpt= -1 -1 -1 -1 -1 -1 -1 -1 -1 -1 -1 -1 -1 -1 -1 -1 -1 -1 -1 -1
 MicOpt= -1 -1 -1 -1 -1 -1 -1 -1 -1 -1 -1 -1 -1 -1 -1 -1 -1 -1 -1 -1
 MicOpt= -1
 NAtoms=    101 NQM=      101 NQMF=       0 NMMI=      0 NMMIF=      0
                NMic=       0 NMicF=      0.
                    Isotopes and Nuclear Properties:
 (Nuclear quadrupole moments (NQMom) in fm**2, nuclear magnetic moments (NMagM)
  in nuclear magnetons)

  Atom         1           2           3           4           5           6           7           8           9          10
 IAtWgt=          12          12           1           1           1          12           1           1          12           1
 AtmWgt=  12.0000000  12.0000000   1.0078250   1.0078250   1.0078250  12.0000000   1.0078250   1.0078250  12.0000000   1.0078250
 NucSpn=           0           0           1           1           1           0           1           1           0           1
 AtZEff=  -0.0000000  -0.0000000  -0.0000000  -0.0000000  -0.0000000  -0.0000000  -0.0000000  -0.0000000  -0.0000000  -0.0000000
 NQMom=    0.0000000   0.0000000   0.0000000   0.0000000   0.0000000   0.0000000   0.0000000   0.0000000   0.0000000   0.0000000
 NMagM=    0.0000000   0.0000000   2.7928460   2.7928460   2.7928460   0.0000000   2.7928460   2.7928460   0.0000000   2.7928460
 AtZNuc=   6.0000000   6.0000000   1.0000000   1.0000000   1.0000000   6.0000000   1.0000000   1.0000000   6.0000000   1.0000000

  Atom        11          12          13          14          15          16          17          18          19          20
 IAtWgt=           1           1          12          12           1           1           1          12           1           1
 AtmWgt=   1.0078250   1.0078250  12.0000000  12.0000000   1.0078250   1.0078250   1.0078250  12.0000000   1.0078250   1.0078250
 NucSpn=           1           1           0           0           1           1           1           0           1           1
 AtZEff=  -0.0000000  -0.0000000  -0.0000000  -0.0000000  -0.0000000  -0.0000000  -0.0000000  -0.0000000  -0.0000000  -0.0000000
 NQMom=    0.0000000   0.0000000   0.0000000   0.0000000   0.0000000   0.0000000   0.0000000   0.0000000   0.0000000   0.0000000
 NMagM=    2.7928460   2.7928460   0.0000000   0.0000000   2.7928460   2.7928460   2.7928460   0.0000000   2.7928460   2.7928460
 AtZNuc=   1.0000000   1.0000000   6.0000000   6.0000000   1.0000000   1.0000000   1.0000000   6.0000000   1.0000000   1.0000000

  Atom        21          22          23          24          25          26          27          28          29          30
 IAtWgt=           1          12          12          12          12           1          12           1          12           1
 AtmWgt=   1.0078250  12.0000000  12.0000000  12.0000000  12.0000000   1.0078250  12.0000000   1.0078250  12.0000000   1.0078250
 NucSpn=           1           0           0           0           0           1           0           1           0           1
 AtZEff=  -0.0000000  -0.0000000  -0.0000000  -0.0000000  -0.0000000  -0.0000000  -0.0000000  -0.0000000  -0.0000000  -0.0000000
 NQMom=    0.0000000   0.0000000   0.0000000   0.0000000   0.0000000   0.0000000   0.0000000   0.0000000   0.0000000   0.0000000
 NMagM=    2.7928460   0.0000000   0.0000000   0.0000000   0.0000000   2.7928460   0.0000000   2.7928460   0.0000000   2.7928460
 AtZNuc=   1.0000000   6.0000000   6.0000000   6.0000000   6.0000000   1.0000000   6.0000000   1.0000000   6.0000000   1.0000000

  Atom        31          32          33          34          35          36          37          38          39          40
 IAtWgt=           1          12          12          12          12           1          12           1          12           1
 AtmWgt=   1.0078250  12.0000000  12.0000000  12.0000000  12.0000000   1.0078250  12.0000000   1.0078250  12.0000000   1.0078250
 NucSpn=           1           0           0           0           0           1           0           1           0           1
 AtZEff=  -0.0000000  -0.0000000  -0.0000000  -0.0000000  -0.0000000  -0.0000000  -0.0000000  -0.0000000  -0.0000000  -0.0000000
 NQMom=    0.0000000   0.0000000   0.0000000   0.0000000   0.0000000   0.0000000   0.0000000   0.0000000   0.0000000   0.0000000
 NMagM=    2.7928460   0.0000000   0.0000000   0.0000000   0.0000000   2.7928460   0.0000000   2.7928460   0.0000000   2.7928460
 AtZNuc=   1.0000000   6.0000000   6.0000000   6.0000000   6.0000000   1.0000000   6.0000000   1.0000000   6.0000000   1.0000000

  Atom        41          42          43          44          45          46          47          48          49          50
 IAtWgt=           1          12           1           1          12           1           1          12           1           1
 AtmWgt=   1.0078250  12.0000000   1.0078250   1.0078250  12.0000000   1.0078250   1.0078250  12.0000000   1.0078250   1.0078250
 NucSpn=           1           0           1           1           0           1           1           0           1           1
 AtZEff=  -0.0000000  -0.0000000  -0.0000000  -0.0000000  -0.0000000  -0.0000000  -0.0000000  -0.0000000  -0.0000000  -0.0000000
 NQMom=    0.0000000   0.0000000   0.0000000   0.0000000   0.0000000   0.0000000   0.0000000   0.0000000   0.0000000   0.0000000
 NMagM=    2.7928460   0.0000000   2.7928460   2.7928460   0.0000000   2.7928460   2.7928460   0.0000000   2.7928460   2.7928460
 AtZNuc=   1.0000000   6.0000000   1.0000000   1.0000000   6.0000000   1.0000000   1.0000000   6.0000000   1.0000000   1.0000000

  Atom        51          52          53          54          55          56          57          58          59          60
 IAtWgt=           1          12           1           1           1          12           1           1           1          12
 AtmWgt=   1.0078250  12.0000000   1.0078250   1.0078250   1.0078250  12.0000000   1.0078250   1.0078250   1.0078250  12.0000000
 NucSpn=           1           0           1           1           1           0           1           1           1           0
 AtZEff=  -0.0000000  -0.0000000  -0.0000000  -0.0000000  -0.0000000  -0.0000000  -0.0000000  -0.0000000  -0.0000000  -0.0000000
 NQMom=    0.0000000   0.0000000   0.0000000   0.0000000   0.0000000   0.0000000   0.0000000   0.0000000   0.0000000   0.0000000
 NMagM=    2.7928460   0.0000000   2.7928460   2.7928460   2.7928460   0.0000000   2.7928460   2.7928460   2.7928460   0.0000000
 AtZNuc=   1.0000000   6.0000000   1.0000000   1.0000000   1.0000000   6.0000000   1.0000000   1.0000000   1.0000000   6.0000000

  Atom        61          62          63          64          65          66          67          68          69          70
 IAtWgt=           1           1           1          12           1           1           1          12           1           1
 AtmWgt=   1.0078250   1.0078250   1.0078250  12.0000000   1.0078250   1.0078250   1.0078250  12.0000000   1.0078250   1.0078250
 NucSpn=           1           1           1           0           1           1           1           0           1           1
 AtZEff=  -0.0000000  -0.0000000  -0.0000000  -0.0000000  -0.0000000  -0.0000000  -0.0000000  -0.0000000  -0.0000000  -0.0000000
 NQMom=    0.0000000   0.0000000   0.0000000   0.0000000   0.0000000   0.0000000   0.0000000   0.0000000   0.0000000   0.0000000
 NMagM=    2.7928460   2.7928460   2.7928460   0.0000000   2.7928460   2.7928460   2.7928460   0.0000000   2.7928460   2.7928460
 AtZNuc=   1.0000000   1.0000000   1.0000000   6.0000000   1.0000000   1.0000000   1.0000000   6.0000000   1.0000000   1.0000000

  Atom        71          72          73          74          75          76          77          78          79          80
 IAtWgt=           1          14          14          12          16          16          16          16           1           1
 AtmWgt=   1.0078250  14.0030740  14.0030740  12.0000000  15.9949146  15.9949146  15.9949146  15.9949146   1.0078250   1.0078250
 NucSpn=           1           2           2           0           0           0           0           0           1           1
 AtZEff=  -0.0000000  -0.0000000  -0.0000000  -0.0000000  -0.0000000  -0.0000000  -0.0000000  -0.0000000  -0.0000000  -0.0000000
 NQMom=    0.0000000   2.0440000   2.0440000   0.0000000   0.0000000   0.0000000   0.0000000   0.0000000   0.0000000   0.0000000
 NMagM=    2.7928460   0.4037610   0.4037610   0.0000000   0.0000000   0.0000000   0.0000000   0.0000000   2.7928460   2.7928460
 AtZNuc=   1.0000000   7.0000000   7.0000000   6.0000000   8.0000000   8.0000000   8.0000000   8.0000000   1.0000000   1.0000000

  Atom        81          82          83          84          85          86          87          88          89          90
 IAtWgt=          16           1           1          16           1           1          16           1           1          16
 AtmWgt=  15.9949146   1.0078250   1.0078250  15.9949146   1.0078250   1.0078250  15.9949146   1.0078250   1.0078250  15.9949146
 NucSpn=           0           1           1           0           1           1           0           1           1           0
 AtZEff=  -0.0000000  -0.0000000  -0.0000000  -0.0000000  -0.0000000  -0.0000000  -0.0000000  -0.0000000  -0.0000000  -0.0000000
 NQMom=    0.0000000   0.0000000   0.0000000   0.0000000   0.0000000   0.0000000   0.0000000   0.0000000   0.0000000   0.0000000
 NMagM=    0.0000000   2.7928460   2.7928460   0.0000000   2.7928460   2.7928460   0.0000000   2.7928460   2.7928460   0.0000000
 AtZNuc=   8.0000000   1.0000000   1.0000000   8.0000000   1.0000000   1.0000000   8.0000000   1.0000000   1.0000000   8.0000000

  Atom        91          92          93          94          95          96          97          98          99         100
 IAtWgt=           1           1          16           1           1          16           1           1          16           1
 AtmWgt=   1.0078250   1.0078250  15.9949146   1.0078250   1.0078250  15.9949146   1.0078250   1.0078250  15.9949146   1.0078250
 NucSpn=           1           1           0           1           1           0           1           1           0           1
 AtZEff=  -0.0000000  -0.0000000  -0.0000000  -0.0000000  -0.0000000  -0.0000000  -0.0000000  -0.0000000  -0.0000000  -0.0000000
 NQMom=    0.0000000   0.0000000   0.0000000   0.0000000   0.0000000   0.0000000   0.0000000   0.0000000   0.0000000   0.0000000
 NMagM=    2.7928460   2.7928460   0.0000000   2.7928460   2.7928460   0.0000000   2.7928460   2.7928460   0.0000000   2.7928460
 AtZNuc=   1.0000000   1.0000000   8.0000000   1.0000000   1.0000000   8.0000000   1.0000000   1.0000000   8.0000000   1.0000000

  Atom       101
 IAtWgt=           1
 AtmWgt=   1.0078250
 NucSpn=           1
 AtZEff=  -0.0000000
 NQMom=    0.0000000
 NMagM=    2.7928460
 AtZNuc=   1.0000000
 Leave Link  101 at Sat Mar 16 16:07:02 2024, MaxMem=  1879048192 cpu:               4.6 elap:               0.4
 (Enter /packages/apps/gaussian/g16/g16/l103.exe)

 GradGradGradGradGradGradGradGradGradGradGradGradGradGradGradGradGradGrad
 Berny optimization.
 Initialization pass.
                           ----------------------------
                           !    Initial Parameters    !
                           ! (Angstroms and Degrees)  !
 --------------------------                            --------------------------
 ! Name  Definition              Value          Derivative Info.                !
 --------------------------------------------------------------------------------
 ! R1    R(1,2)                  1.5239         estimate D2E/DX2                !
 ! R2    R(1,3)                  1.0898         estimate D2E/DX2                !
 ! R3    R(1,4)                  1.0904         estimate D2E/DX2                !
 ! R4    R(1,5)                  1.0919         estimate D2E/DX2                !
 ! R5    R(2,6)                  1.5376         estimate D2E/DX2                !
 ! R6    R(2,7)                  1.0935         estimate D2E/DX2                !
 ! R7    R(2,8)                  1.0927         estimate D2E/DX2                !
 ! R8    R(6,9)                  1.538          estimate D2E/DX2                !
 ! R9    R(6,10)                 1.0951         estimate D2E/DX2                !
 ! R10   R(6,32)                 1.5152         estimate D2E/DX2                !
 ! R11   R(9,11)                 1.0937         estimate D2E/DX2                !
 ! R12   R(9,12)                 1.093          estimate D2E/DX2                !
 ! R13   R(9,13)                 1.5416         estimate D2E/DX2                !
 ! R14   R(13,14)                1.5366         estimate D2E/DX2                !
 ! R15   R(13,15)                1.095          estimate D2E/DX2                !
 ! R16   R(13,22)                1.5155         estimate D2E/DX2                !
 ! R17   R(14,16)                1.0936         estimate D2E/DX2                !
 ! R18   R(14,17)                1.0924         estimate D2E/DX2                !
 ! R19   R(14,18)                1.5238         estimate D2E/DX2                !
 ! R20   R(18,19)                1.0899         estimate D2E/DX2                !
 ! R21   R(18,20)                1.0918         estimate D2E/DX2                !
 ! R22   R(18,21)                1.0904         estimate D2E/DX2                !
 ! R23   R(22,23)                1.3897         estimate D2E/DX2                !
 ! R24   R(22,24)                1.3922         estimate D2E/DX2                !
 ! R25   R(23,25)                1.3839         estimate D2E/DX2                !
 ! R26   R(23,26)                1.082          estimate D2E/DX2                !
 ! R27   R(24,27)                1.3849         estimate D2E/DX2                !
 ! R28   R(24,28)                1.0828         estimate D2E/DX2                !
 ! R29   R(25,29)                1.3922         estimate D2E/DX2                !
 ! R30   R(25,30)                1.0834         estimate D2E/DX2                !
 ! R31   R(27,29)                1.3917         estimate D2E/DX2                !
 ! R32   R(27,31)                1.0834         estimate D2E/DX2                !
 ! R33   R(29,45)                1.4978         estimate D2E/DX2                !
 ! R34   R(32,33)                1.3894         estimate D2E/DX2                !
 ! R35   R(32,34)                1.3937         estimate D2E/DX2                !
 ! R36   R(33,35)                1.3874         estimate D2E/DX2                !
 ! R37   R(33,36)                1.0831         estimate D2E/DX2                !
 ! R38   R(34,37)                1.3832         estimate D2E/DX2                !
 ! R39   R(34,38)                1.0824         estimate D2E/DX2                !
 ! R40   R(35,39)                1.3895         estimate D2E/DX2                !
 ! R41   R(35,40)                1.0832         estimate D2E/DX2                !
 ! R42   R(37,39)                1.3948         estimate D2E/DX2                !
 ! R43   R(37,41)                1.0839         estimate D2E/DX2                !
 ! R44   R(39,42)                1.4991         estimate D2E/DX2                !
 ! R45   R(42,43)                1.0896         estimate D2E/DX2                !
 ! R46   R(42,44)                1.0886         estimate D2E/DX2                !
 ! R47   R(42,72)                1.5239         estimate D2E/DX2                !
 ! R48   R(43,75)                2.0375         estimate D2E/DX2                !
 ! R49   R(45,46)                1.0852         estimate D2E/DX2                !
 ! R50   R(45,47)                1.0873         estimate D2E/DX2                !
 ! R51   R(45,73)                1.5223         estimate D2E/DX2                !
 ! R52   R(46,75)                2.141          estimate D2E/DX2                !
 ! R53   R(47,95)                2.1833         estimate D2E/DX2                !
 ! R54   R(48,49)                1.0858         estimate D2E/DX2                !
 ! R55   R(48,50)                1.0854         estimate D2E/DX2                !
 ! R56   R(48,51)                1.0872         estimate D2E/DX2                !
 ! R57   R(48,72)                1.4977         estimate D2E/DX2                !
 ! R58   R(52,53)                1.086          estimate D2E/DX2                !
 ! R59   R(52,54)                1.0907         estimate D2E/DX2                !
 ! R60   R(52,55)                1.0876         estimate D2E/DX2                !
 ! R61   R(52,72)                1.4912         estimate D2E/DX2                !
 ! R62   R(54,84)                2.0794         estimate D2E/DX2                !
 ! R63   R(56,57)                1.087          estimate D2E/DX2                !
 ! R64   R(56,58)                1.0864         estimate D2E/DX2                !
 ! R65   R(56,59)                1.087          estimate D2E/DX2                !
 ! R66   R(56,72)                1.4833         estimate D2E/DX2                !
 ! R67   R(60,61)                1.0878         estimate D2E/DX2                !
 ! R68   R(60,62)                1.089          estimate D2E/DX2                !
 ! R69   R(60,63)                1.0887         estimate D2E/DX2                !
 ! R70   R(60,73)                1.4989         estimate D2E/DX2                !
 ! R71   R(64,65)                1.0872         estimate D2E/DX2                !
 ! R72   R(64,66)                1.0869         estimate D2E/DX2                !
 ! R73   R(64,67)                1.0874         estimate D2E/DX2                !
 ! R74   R(64,73)                1.484          estimate D2E/DX2                !
 ! R75   R(68,69)                1.0859         estimate D2E/DX2                !
 ! R76   R(68,70)                1.0896         estimate D2E/DX2                !
 ! R77   R(68,71)                1.0874         estimate D2E/DX2                !
 ! R78   R(68,73)                1.488          estimate D2E/DX2                !
 ! R79   R(74,75)                1.2875         estimate D2E/DX2                !
 ! R80   R(74,76)                1.281          estimate D2E/DX2                !
 ! R81   R(74,77)                1.2821         estimate D2E/DX2                !
 ! R82   R(75,86)                1.7041         estimate D2E/DX2                !
 ! R83   R(75,95)                1.7445         estimate D2E/DX2                !
 ! R84   R(76,82)                1.8548         estimate D2E/DX2                !
 ! R85   R(76,89)                1.8322         estimate D2E/DX2                !
 ! R86   R(76,98)                1.7259         estimate D2E/DX2                !
 ! R87   R(77,80)                1.6071         estimate D2E/DX2                !
 ! R88   R(77,92)                1.7599         estimate D2E/DX2                !
 ! R89   R(78,79)                0.9569         estimate D2E/DX2                !
 ! R90   R(78,80)                1.0            estimate D2E/DX2                !
 ! R91   R(81,82)                0.9733         estimate D2E/DX2                !
 ! R92   R(81,83)                0.9695         estimate D2E/DX2                !
 ! R93   R(81,91)                1.982          estimate D2E/DX2                !
 ! R94   R(83,99)                1.9096         estimate D2E/DX2                !
 ! R95   R(84,85)                0.9628         estimate D2E/DX2                !
 ! R96   R(84,86)                0.9808         estimate D2E/DX2                !
 ! R97   R(87,88)                0.9645         estimate D2E/DX2                !
 ! R98   R(87,89)                0.9783         estimate D2E/DX2                !
 ! R99   R(87,100)               1.7615         estimate D2E/DX2                !
 ! R100  R(90,91)                0.9685         estimate D2E/DX2                !
 ! R101  R(90,92)                0.9772         estimate D2E/DX2                !
 ! R102  R(93,94)                0.9616         estimate D2E/DX2                !
 ! R103  R(93,95)                0.9792         estimate D2E/DX2                !
 ! R104  R(96,97)                0.9557         estimate D2E/DX2                !
 ! R105  R(96,98)                0.9886         estimate D2E/DX2                !
 ! R106  R(99,100)               0.9816         estimate D2E/DX2                !
 ! R107  R(99,101)               0.9555         estimate D2E/DX2                !
 ! A1    A(2,1,3)              110.9701         estimate D2E/DX2                !
 ! A2    A(2,1,4)              111.2969         estimate D2E/DX2                !
 ! A3    A(2,1,5)              110.9512         estimate D2E/DX2                !
 ! A4    A(3,1,4)              107.9388         estimate D2E/DX2                !
 ! A5    A(3,1,5)              107.8285         estimate D2E/DX2                !
 ! A6    A(4,1,5)              107.7023         estimate D2E/DX2                !
 ! A7    A(1,2,6)              113.7676         estimate D2E/DX2                !
 ! A8    A(1,2,7)              109.6918         estimate D2E/DX2                !
 ! A9    A(1,2,8)              109.5052         estimate D2E/DX2                !
 ! A10   A(6,2,7)              109.0004         estimate D2E/DX2                !
 ! A11   A(6,2,8)              108.3164         estimate D2E/DX2                !
 ! A12   A(7,2,8)              106.2814         estimate D2E/DX2                !
 ! A13   A(2,6,9)              109.9957         estimate D2E/DX2                !
 ! A14   A(2,6,10)             107.2676         estimate D2E/DX2                !
 ! A15   A(2,6,32)             111.1194         estimate D2E/DX2                !
 ! A16   A(9,6,10)             106.9561         estimate D2E/DX2                !
 ! A17   A(9,6,32)             114.1837         estimate D2E/DX2                !
 ! A18   A(10,6,32)            106.9554         estimate D2E/DX2                !
 ! A19   A(6,9,11)             109.7485         estimate D2E/DX2                !
 ! A20   A(6,9,12)             106.8262         estimate D2E/DX2                !
 ! A21   A(6,9,13)             116.319          estimate D2E/DX2                !
 ! A22   A(11,9,12)            105.8734         estimate D2E/DX2                !
 ! A23   A(11,9,13)            109.4392         estimate D2E/DX2                !
 ! A24   A(12,9,13)            108.0896         estimate D2E/DX2                !
 ! A25   A(9,13,14)            110.5511         estimate D2E/DX2                !
 ! A26   A(9,13,15)            107.7535         estimate D2E/DX2                !
 ! A27   A(9,13,22)            111.872          estimate D2E/DX2                !
 ! A28   A(14,13,15)           107.1719         estimate D2E/DX2                !
 ! A29   A(14,13,22)           111.8852         estimate D2E/DX2                !
 ! A30   A(15,13,22)           107.3521         estimate D2E/DX2                !
 ! A31   A(13,14,16)           109.3867         estimate D2E/DX2                !
 ! A32   A(13,14,17)           108.1409         estimate D2E/DX2                !
 ! A33   A(13,14,18)           113.65           estimate D2E/DX2                !
 ! A34   A(16,14,17)           106.0637         estimate D2E/DX2                !
 ! A35   A(16,14,18)           109.8322         estimate D2E/DX2                !
 ! A36   A(17,14,18)           109.4768         estimate D2E/DX2                !
 ! A37   A(14,18,19)           111.0366         estimate D2E/DX2                !
 ! A38   A(14,18,20)           110.8643         estimate D2E/DX2                !
 ! A39   A(14,18,21)           111.3181         estimate D2E/DX2                !
 ! A40   A(19,18,20)           107.8502         estimate D2E/DX2                !
 ! A41   A(19,18,21)           107.9916         estimate D2E/DX2                !
 ! A42   A(20,18,21)           107.6265         estimate D2E/DX2                !
 ! A43   A(13,22,23)           120.9455         estimate D2E/DX2                !
 ! A44   A(13,22,24)           120.9039         estimate D2E/DX2                !
 ! A45   A(23,22,24)           118.0669         estimate D2E/DX2                !
 ! A46   A(22,23,25)           121.3113         estimate D2E/DX2                !
 ! A47   A(22,23,26)           119.2836         estimate D2E/DX2                !
 ! A48   A(25,23,26)           119.2616         estimate D2E/DX2                !
 ! A49   A(22,24,27)           120.8897         estimate D2E/DX2                !
 ! A50   A(22,24,28)           119.9686         estimate D2E/DX2                !
 ! A51   A(27,24,28)           119.0969         estimate D2E/DX2                !
 ! A52   A(23,25,29)           120.3314         estimate D2E/DX2                !
 ! A53   A(23,25,30)           120.1301         estimate D2E/DX2                !
 ! A54   A(29,25,30)           119.4488         estimate D2E/DX2                !
 ! A55   A(24,27,29)           120.6796         estimate D2E/DX2                !
 ! A56   A(24,27,31)           119.6453         estimate D2E/DX2                !
 ! A57   A(29,27,31)           119.5915         estimate D2E/DX2                !
 ! A58   A(25,29,27)           118.617          estimate D2E/DX2                !
 ! A59   A(25,29,45)           120.407          estimate D2E/DX2                !
 ! A60   A(27,29,45)           120.6185         estimate D2E/DX2                !
 ! A61   A(6,32,33)            120.6355         estimate D2E/DX2                !
 ! A62   A(6,32,34)            121.3537         estimate D2E/DX2                !
 ! A63   A(33,32,34)           118.0104         estimate D2E/DX2                !
 ! A64   A(32,33,35)           121.1099         estimate D2E/DX2                !
 ! A65   A(32,33,36)           119.3879         estimate D2E/DX2                !
 ! A66   A(35,33,36)           119.4747         estimate D2E/DX2                !
 ! A67   A(32,34,37)           121.1481         estimate D2E/DX2                !
 ! A68   A(32,34,38)           119.8494         estimate D2E/DX2                !
 ! A69   A(37,34,38)           118.979          estimate D2E/DX2                !
 ! A70   A(33,35,39)           120.6572         estimate D2E/DX2                !
 ! A71   A(33,35,40)           119.4773         estimate D2E/DX2                !
 ! A72   A(39,35,40)           119.833          estimate D2E/DX2                !
 ! A73   A(34,37,39)           120.587          estimate D2E/DX2                !
 ! A74   A(34,37,41)           120.0202         estimate D2E/DX2                !
 ! A75   A(39,37,41)           119.3882         estimate D2E/DX2                !
 ! A76   A(35,39,37)           118.4738         estimate D2E/DX2                !
 ! A77   A(35,39,42)           121.8415         estimate D2E/DX2                !
 ! A78   A(37,39,42)           119.615          estimate D2E/DX2                !
 ! A79   A(39,42,43)           110.6777         estimate D2E/DX2                !
 ! A80   A(39,42,44)           111.4979         estimate D2E/DX2                !
 ! A81   A(39,42,72)           115.0565         estimate D2E/DX2                !
 ! A82   A(43,42,44)           106.955          estimate D2E/DX2                !
 ! A83   A(43,42,72)           106.0918         estimate D2E/DX2                !
 ! A84   A(44,42,72)           106.0776         estimate D2E/DX2                !
 ! A85   A(29,45,46)           111.3758         estimate D2E/DX2                !
 ! A86   A(29,45,47)           111.0506         estimate D2E/DX2                !
 ! A87   A(29,45,73)           116.236          estimate D2E/DX2                !
 ! A88   A(46,45,47)           106.5973         estimate D2E/DX2                !
 ! A89   A(46,45,73)           105.9287         estimate D2E/DX2                !
 ! A90   A(47,45,73)           105.0026         estimate D2E/DX2                !
 ! A91   A(45,46,75)           126.8456         estimate D2E/DX2                !
 ! A92   A(45,47,95)           122.1271         estimate D2E/DX2                !
 ! A93   A(49,48,50)           109.5775         estimate D2E/DX2                !
 ! A94   A(49,48,51)           110.0232         estimate D2E/DX2                !
 ! A95   A(49,48,72)           109.2172         estimate D2E/DX2                !
 ! A96   A(50,48,51)           110.5519         estimate D2E/DX2                !
 ! A97   A(50,48,72)           108.1943         estimate D2E/DX2                !
 ! A98   A(51,48,72)           109.2407         estimate D2E/DX2                !
 ! A99   A(53,52,54)           111.199          estimate D2E/DX2                !
 ! A100  A(53,52,55)           110.1945         estimate D2E/DX2                !
 ! A101  A(53,52,72)           109.0693         estimate D2E/DX2                !
 ! A102  A(54,52,55)           109.9686         estimate D2E/DX2                !
 ! A103  A(54,52,72)           108.6171         estimate D2E/DX2                !
 ! A104  A(55,52,72)           107.7059         estimate D2E/DX2                !
 ! A105  A(52,54,84)           164.1377         estimate D2E/DX2                !
 ! A106  A(57,56,58)           110.4288         estimate D2E/DX2                !
 ! A107  A(57,56,59)           109.7437         estimate D2E/DX2                !
 ! A108  A(57,56,72)           108.7893         estimate D2E/DX2                !
 ! A109  A(58,56,59)           109.9092         estimate D2E/DX2                !
 ! A110  A(58,56,72)           109.1989         estimate D2E/DX2                !
 ! A111  A(59,56,72)           108.737          estimate D2E/DX2                !
 ! A112  A(61,60,62)           110.7257         estimate D2E/DX2                !
 ! A113  A(61,60,63)           111.0163         estimate D2E/DX2                !
 ! A114  A(61,60,73)           108.0543         estimate D2E/DX2                !
 ! A115  A(62,60,63)           109.7004         estimate D2E/DX2                !
 ! A116  A(62,60,73)           108.6511         estimate D2E/DX2                !
 ! A117  A(63,60,73)           108.6219         estimate D2E/DX2                !
 ! A118  A(65,64,66)           110.3349         estimate D2E/DX2                !
 ! A119  A(65,64,67)           110.1129         estimate D2E/DX2                !
 ! A120  A(65,64,73)           108.3573         estimate D2E/DX2                !
 ! A121  A(66,64,67)           110.0961         estimate D2E/DX2                !
 ! A122  A(66,64,73)           108.9703         estimate D2E/DX2                !
 ! A123  A(67,64,73)           108.9266         estimate D2E/DX2                !
 ! A124  A(69,68,70)           110.2088         estimate D2E/DX2                !
 ! A125  A(69,68,71)           110.1287         estimate D2E/DX2                !
 ! A126  A(69,68,73)           109.1525         estimate D2E/DX2                !
 ! A127  A(70,68,71)           110.823          estimate D2E/DX2                !
 ! A128  A(70,68,73)           108.3163         estimate D2E/DX2                !
 ! A129  A(71,68,73)           108.1514         estimate D2E/DX2                !
 ! A130  A(42,72,48)           107.4312         estimate D2E/DX2                !
 ! A131  A(42,72,52)           111.6347         estimate D2E/DX2                !
 ! A132  A(42,72,56)           110.3386         estimate D2E/DX2                !
 ! A133  A(48,72,52)           108.5483         estimate D2E/DX2                !
 ! A134  A(48,72,56)           109.2026         estimate D2E/DX2                !
 ! A135  A(52,72,56)           109.6165         estimate D2E/DX2                !
 ! A136  A(45,73,60)           107.5205         estimate D2E/DX2                !
 ! A137  A(45,73,64)           109.669          estimate D2E/DX2                !
 ! A138  A(45,73,68)           111.3312         estimate D2E/DX2                !
 ! A139  A(60,73,64)           109.3434         estimate D2E/DX2                !
 ! A140  A(60,73,68)           108.7473         estimate D2E/DX2                !
 ! A141  A(64,73,68)           110.1677         estimate D2E/DX2                !
 ! A142  A(75,74,76)           120.2288         estimate D2E/DX2                !
 ! A143  A(75,74,77)           119.2643         estimate D2E/DX2                !
 ! A144  A(76,74,77)           120.5066         estimate D2E/DX2                !
 ! A145  A(43,75,46)            79.8703         estimate D2E/DX2                !
 ! A146  A(43,75,74)           103.4452         estimate D2E/DX2                !
 ! A147  A(43,75,86)            75.0649         estimate D2E/DX2                !
 ! A148  A(43,75,95)           143.1107         estimate D2E/DX2                !
 ! A149  A(46,75,74)           108.9275         estimate D2E/DX2                !
 ! A150  A(46,75,86)           127.6963         estimate D2E/DX2                !
 ! A151  A(46,75,95)            88.7623         estimate D2E/DX2                !
 ! A152  A(74,75,86)           121.1333         estimate D2E/DX2                !
 ! A153  A(74,75,95)           113.4349         estimate D2E/DX2                !
 ! A154  A(86,75,95)            84.9931         estimate D2E/DX2                !
 ! A155  A(74,76,82)           116.4896         estimate D2E/DX2                !
 ! A156  A(74,76,89)           109.713          estimate D2E/DX2                !
 ! A157  A(74,76,98)           111.6624         estimate D2E/DX2                !
 ! A158  A(82,76,89)            78.1188         estimate D2E/DX2                !
 ! A159  A(82,76,98)           106.4101         estimate D2E/DX2                !
 ! A160  A(89,76,98)           129.9834         estimate D2E/DX2                !
 ! A161  A(74,77,80)           127.6193         estimate D2E/DX2                !
 ! A162  A(74,77,92)           115.6499         estimate D2E/DX2                !
 ! A163  A(80,77,92)           100.6794         estimate D2E/DX2                !
 ! A164  A(79,78,80)           104.3433         estimate D2E/DX2                !
 ! A165  A(82,81,83)           103.7838         estimate D2E/DX2                !
 ! A166  A(82,81,91)            89.2334         estimate D2E/DX2                !
 ! A167  A(83,81,91)           100.3431         estimate D2E/DX2                !
 ! A168  A(81,83,99)           158.0844         estimate D2E/DX2                !
 ! A169  A(54,84,85)           136.4474         estimate D2E/DX2                !
 ! A170  A(54,84,86)           103.4884         estimate D2E/DX2                !
 ! A171  A(85,84,86)           101.2966         estimate D2E/DX2                !
 ! A172  A(88,87,89)           102.7977         estimate D2E/DX2                !
 ! A173  A(88,87,100)          102.3883         estimate D2E/DX2                !
 ! A174  A(89,87,100)          104.3691         estimate D2E/DX2                !
 ! A175  A(91,90,92)           103.3386         estimate D2E/DX2                !
 ! A176  A(81,91,90)           158.9305         estimate D2E/DX2                !
 ! A177  A(94,93,95)           101.6082         estimate D2E/DX2                !
 ! A178  A(47,95,75)            88.7199         estimate D2E/DX2                !
 ! A179  A(47,95,93)            87.0779         estimate D2E/DX2                !
 ! A180  A(97,96,98)           105.3317         estimate D2E/DX2                !
 ! A181  A(83,99,100)           89.0457         estimate D2E/DX2                !
 ! A182  A(83,99,101)          120.2069         estimate D2E/DX2                !
 ! A183  A(100,99,101)         105.7622         estimate D2E/DX2                !
 ! A184  L(42,43,75,11,-1)     188.8801         estimate D2E/DX2                !
 ! A185  L(77,80,78,3,-1)      185.2169         estimate D2E/DX2                !
 ! A186  L(76,82,81,1,-1)      177.543          estimate D2E/DX2                !
 ! A187  L(75,86,84,1,-1)      178.2672         estimate D2E/DX2                !
 ! A188  L(76,89,87,61,-1)     189.0517         estimate D2E/DX2                !
 ! A189  L(77,92,90,40,-1)     177.9313         estimate D2E/DX2                !
 ! A190  L(75,95,93,47,-1)     175.7978         estimate D2E/DX2                !
 ! A191  L(76,98,96,1,-1)      178.4233         estimate D2E/DX2                !
 ! A192  L(87,100,99,3,-1)     168.6626         estimate D2E/DX2                !
 ! A193  L(42,43,75,11,-2)     168.9863         estimate D2E/DX2                !
 ! A194  L(77,80,78,3,-2)      177.5673         estimate D2E/DX2                !
 ! A195  L(76,82,81,1,-2)      188.8514         estimate D2E/DX2                !
 ! A196  L(75,86,84,1,-2)      183.8111         estimate D2E/DX2                !
 ! A197  L(76,89,87,61,-2)     173.9271         estimate D2E/DX2                !
 ! A198  L(77,92,90,40,-2)     175.2678         estimate D2E/DX2                !
 ! A199  L(75,95,93,47,-2)     175.8394         estimate D2E/DX2                !
 ! A200  L(76,98,96,1,-2)      178.903          estimate D2E/DX2                !
 ! A201  L(87,100,99,3,-2)     182.8548         estimate D2E/DX2                !
 ! D1    D(3,1,2,6)            177.5346         estimate D2E/DX2                !
 ! D2    D(3,1,2,7)            -60.091          estimate D2E/DX2                !
 ! D3    D(3,1,2,8)             56.1833         estimate D2E/DX2                !
 ! D4    D(4,1,2,6)            -62.2383         estimate D2E/DX2                !
 ! D5    D(4,1,2,7)             60.1361         estimate D2E/DX2                !
 ! D6    D(4,1,2,8)            176.4104         estimate D2E/DX2                !
 ! D7    D(5,1,2,6)             57.677          estimate D2E/DX2                !
 ! D8    D(5,1,2,7)           -179.9486         estimate D2E/DX2                !
 ! D9    D(5,1,2,8)            -63.6743         estimate D2E/DX2                !
 ! D10   D(1,2,6,9)           -173.8689         estimate D2E/DX2                !
 ! D11   D(1,2,6,10)           -57.8857         estimate D2E/DX2                !
 ! D12   D(1,2,6,32)            58.6943         estimate D2E/DX2                !
 ! D13   D(7,2,6,9)             63.3767         estimate D2E/DX2                !
 ! D14   D(7,2,6,10)           179.3598         estimate D2E/DX2                !
 ! D15   D(7,2,6,32)           -64.0602         estimate D2E/DX2                !
 ! D16   D(8,2,6,9)            -51.8576         estimate D2E/DX2                !
 ! D17   D(8,2,6,10)            64.1255         estimate D2E/DX2                !
 ! D18   D(8,2,6,32)          -179.2945         estimate D2E/DX2                !
 ! D19   D(2,6,9,11)           -60.1937         estimate D2E/DX2                !
 ! D20   D(2,6,9,12)            54.1476         estimate D2E/DX2                !
 ! D21   D(2,6,9,13)           174.911          estimate D2E/DX2                !
 ! D22   D(10,6,9,11)         -176.3728         estimate D2E/DX2                !
 ! D23   D(10,6,9,12)          -62.0315         estimate D2E/DX2                !
 ! D24   D(10,6,9,13)           58.732          estimate D2E/DX2                !
 ! D25   D(32,6,9,11)           65.5193         estimate D2E/DX2                !
 ! D26   D(32,6,9,12)          179.8607         estimate D2E/DX2                !
 ! D27   D(32,6,9,13)          -59.3759         estimate D2E/DX2                !
 ! D28   D(2,6,32,33)         -114.3133         estimate D2E/DX2                !
 ! D29   D(2,6,32,34)           65.9223         estimate D2E/DX2                !
 ! D30   D(9,6,32,33)          120.5663         estimate D2E/DX2                !
 ! D31   D(9,6,32,34)          -59.1982         estimate D2E/DX2                !
 ! D32   D(10,6,32,33)           2.4581         estimate D2E/DX2                !
 ! D33   D(10,6,32,34)        -177.3063         estimate D2E/DX2                !
 ! D34   D(6,9,13,14)         -154.8581         estimate D2E/DX2                !
 ! D35   D(6,9,13,15)          -38.0435         estimate D2E/DX2                !
 ! D36   D(6,9,13,22)           79.7297         estimate D2E/DX2                !
 ! D37   D(11,9,13,14)          80.0893         estimate D2E/DX2                !
 ! D38   D(11,9,13,15)        -163.0961         estimate D2E/DX2                !
 ! D39   D(11,9,13,22)         -45.3229         estimate D2E/DX2                !
 ! D40   D(12,9,13,14)         -34.7712         estimate D2E/DX2                !
 ! D41   D(12,9,13,15)          82.0434         estimate D2E/DX2                !
 ! D42   D(12,9,13,22)        -160.1835         estimate D2E/DX2                !
 ! D43   D(9,13,14,16)         -59.2689         estimate D2E/DX2                !
 ! D44   D(9,13,14,17)          55.8169         estimate D2E/DX2                !
 ! D45   D(9,13,14,18)         177.5875         estimate D2E/DX2                !
 ! D46   D(15,13,14,16)       -176.4427         estimate D2E/DX2                !
 ! D47   D(15,13,14,17)        -61.3569         estimate D2E/DX2                !
 ! D48   D(15,13,14,18)         60.4137         estimate D2E/DX2                !
 ! D49   D(22,13,14,16)         66.1358         estimate D2E/DX2                !
 ! D50   D(22,13,14,17)       -178.7783         estimate D2E/DX2                !
 ! D51   D(22,13,14,18)        -57.0078         estimate D2E/DX2                !
 ! D52   D(9,13,22,23)        -111.7606         estimate D2E/DX2                !
 ! D53   D(9,13,22,24)          64.8462         estimate D2E/DX2                !
 ! D54   D(14,13,22,23)        123.5657         estimate D2E/DX2                !
 ! D55   D(14,13,22,24)        -59.8275         estimate D2E/DX2                !
 ! D56   D(15,13,22,23)          6.2524         estimate D2E/DX2                !
 ! D57   D(15,13,22,24)       -177.1408         estimate D2E/DX2                !
 ! D58   D(13,14,18,19)       -177.1986         estimate D2E/DX2                !
 ! D59   D(13,14,18,20)        -57.3273         estimate D2E/DX2                !
 ! D60   D(13,14,18,21)         62.4483         estimate D2E/DX2                !
 ! D61   D(16,14,18,19)         59.902          estimate D2E/DX2                !
 ! D62   D(16,14,18,20)        179.7732         estimate D2E/DX2                !
 ! D63   D(16,14,18,21)        -60.4512         estimate D2E/DX2                !
 ! D64   D(17,14,18,19)        -56.1736         estimate D2E/DX2                !
 ! D65   D(17,14,18,20)         63.6976         estimate D2E/DX2                !
 ! D66   D(17,14,18,21)       -176.5267         estimate D2E/DX2                !
 ! D67   D(13,22,23,25)        172.8468         estimate D2E/DX2                !
 ! D68   D(13,22,23,26)         -2.7658         estimate D2E/DX2                !
 ! D69   D(24,22,23,25)         -3.8538         estimate D2E/DX2                !
 ! D70   D(24,22,23,26)       -179.4664         estimate D2E/DX2                !
 ! D71   D(13,22,24,27)       -174.3099         estimate D2E/DX2                !
 ! D72   D(13,22,24,28)          3.2331         estimate D2E/DX2                !
 ! D73   D(23,22,24,27)          2.3921         estimate D2E/DX2                !
 ! D74   D(23,22,24,28)        179.9351         estimate D2E/DX2                !
 ! D75   D(22,23,25,29)          2.6271         estimate D2E/DX2                !
 ! D76   D(22,23,25,30)       -173.9095         estimate D2E/DX2                !
 ! D77   D(26,23,25,29)        178.2406         estimate D2E/DX2                !
 ! D78   D(26,23,25,30)          1.704          estimate D2E/DX2                !
 ! D79   D(22,24,27,29)          0.2936         estimate D2E/DX2                !
 ! D80   D(22,24,27,31)        176.9552         estimate D2E/DX2                !
 ! D81   D(28,24,27,29)       -177.2705         estimate D2E/DX2                !
 ! D82   D(28,24,27,31)         -0.6089         estimate D2E/DX2                !
 ! D83   D(23,25,29,27)          0.144          estimate D2E/DX2                !
 ! D84   D(23,25,29,45)       -173.0334         estimate D2E/DX2                !
 ! D85   D(30,25,29,27)        176.704          estimate D2E/DX2                !
 ! D86   D(30,25,29,45)          3.5267         estimate D2E/DX2                !
 ! D87   D(24,27,29,25)         -1.5804         estimate D2E/DX2                !
 ! D88   D(24,27,29,45)        171.5821         estimate D2E/DX2                !
 ! D89   D(31,27,29,25)       -178.2438         estimate D2E/DX2                !
 ! D90   D(31,27,29,45)         -5.0814         estimate D2E/DX2                !
 ! D91   D(25,29,45,46)         34.6706         estimate D2E/DX2                !
 ! D92   D(25,29,45,47)        153.3118         estimate D2E/DX2                !
 ! D93   D(25,29,45,73)        -86.76           estimate D2E/DX2                !
 ! D94   D(27,29,45,46)       -138.3692         estimate D2E/DX2                !
 ! D95   D(27,29,45,47)        -19.728          estimate D2E/DX2                !
 ! D96   D(27,29,45,73)        100.2002         estimate D2E/DX2                !
 ! D97   D(6,32,33,35)        -178.4058         estimate D2E/DX2                !
 ! D98   D(6,32,33,36)          -0.3248         estimate D2E/DX2                !
 ! D99   D(34,32,33,35)          1.3663         estimate D2E/DX2                !
 ! D100  D(34,32,33,36)        179.4474         estimate D2E/DX2                !
 ! D101  D(6,32,34,37)         178.8213         estimate D2E/DX2                !
 ! D102  D(6,32,34,38)           0.5993         estimate D2E/DX2                !
 ! D103  D(33,32,34,37)         -0.9492         estimate D2E/DX2                !
 ! D104  D(33,32,34,38)       -179.1711         estimate D2E/DX2                !
 ! D105  D(32,33,35,39)         -1.2324         estimate D2E/DX2                !
 ! D106  D(32,33,35,40)        176.6886         estimate D2E/DX2                !
 ! D107  D(36,33,35,39)       -179.3118         estimate D2E/DX2                !
 ! D108  D(36,33,35,40)         -1.3908         estimate D2E/DX2                !
 ! D109  D(32,34,37,39)          0.389          estimate D2E/DX2                !
 ! D110  D(32,34,37,41)       -178.8221         estimate D2E/DX2                !
 ! D111  D(38,34,37,39)        178.6261         estimate D2E/DX2                !
 ! D112  D(38,34,37,41)         -0.5849         estimate D2E/DX2                !
 ! D113  D(33,35,39,37)          0.6265         estimate D2E/DX2                !
 ! D114  D(33,35,39,42)        177.5779         estimate D2E/DX2                !
 ! D115  D(40,35,39,37)       -177.287          estimate D2E/DX2                !
 ! D116  D(40,35,39,42)         -0.3357         estimate D2E/DX2                !
 ! D117  D(34,37,39,35)         -0.212          estimate D2E/DX2                !
 ! D118  D(34,37,39,42)       -177.2331         estimate D2E/DX2                !
 ! D119  D(41,37,39,35)        179.004          estimate D2E/DX2                !
 ! D120  D(41,37,39,42)          1.9829         estimate D2E/DX2                !
 ! D121  D(35,39,42,43)       -151.9614         estimate D2E/DX2                !
 ! D122  D(35,39,42,44)        -33.0366         estimate D2E/DX2                !
 ! D123  D(35,39,42,72)         87.8075         estimate D2E/DX2                !
 ! D124  D(37,39,42,43)         24.9561         estimate D2E/DX2                !
 ! D125  D(37,39,42,44)        143.8808         estimate D2E/DX2                !
 ! D126  D(37,39,42,72)        -95.2751         estimate D2E/DX2                !
 ! D127  D(39,42,75,46)         55.1001         estimate D2E/DX2                !
 ! D128  D(39,42,75,74)        162.7078         estimate D2E/DX2                !
 ! D129  D(39,42,75,86)        -77.1466         estimate D2E/DX2                !
 ! D130  D(39,42,75,95)        -14.4089         estimate D2E/DX2                !
 ! D131  D(44,42,75,46)        -64.081          estimate D2E/DX2                !
 ! D132  D(44,42,75,74)         43.5266         estimate D2E/DX2                !
 ! D133  D(44,42,75,86)        163.6722         estimate D2E/DX2                !
 ! D134  D(44,42,75,95)       -133.5901         estimate D2E/DX2                !
 ! D135  D(72,42,75,46)       -173.8364         estimate D2E/DX2                !
 ! D136  D(72,42,75,74)        -66.2287         estimate D2E/DX2                !
 ! D137  D(72,42,75,86)         53.9169         estimate D2E/DX2                !
 ! D138  D(72,42,75,95)        116.6546         estimate D2E/DX2                !
 ! D139  D(39,42,72,48)        167.2486         estimate D2E/DX2                !
 ! D140  D(39,42,72,52)         48.3529         estimate D2E/DX2                !
 ! D141  D(39,42,72,56)        -73.8013         estimate D2E/DX2                !
 ! D142  D(43,42,72,48)         44.527          estimate D2E/DX2                !
 ! D143  D(43,42,72,52)        -74.3687         estimate D2E/DX2                !
 ! D144  D(43,42,72,56)        163.4771         estimate D2E/DX2                !
 ! D145  D(44,42,72,48)        -68.9893         estimate D2E/DX2                !
 ! D146  D(44,42,72,52)        172.115          estimate D2E/DX2                !
 ! D147  D(44,42,72,56)         49.9608         estimate D2E/DX2                !
 ! D148  D(29,45,46,75)        125.2699         estimate D2E/DX2                !
 ! D149  D(47,45,46,75)          3.994          estimate D2E/DX2                !
 ! D150  D(73,45,46,75)       -107.4733         estimate D2E/DX2                !
 ! D151  D(29,45,47,95)       -142.9309         estimate D2E/DX2                !
 ! D152  D(46,45,47,95)        -21.4481         estimate D2E/DX2                !
 ! D153  D(73,45,47,95)         90.6602         estimate D2E/DX2                !
 ! D154  D(29,45,73,60)        171.5741         estimate D2E/DX2                !
 ! D155  D(29,45,73,64)        -69.629          estimate D2E/DX2                !
 ! D156  D(29,45,73,68)         52.5552         estimate D2E/DX2                !
 ! D157  D(46,45,73,60)         47.2949         estimate D2E/DX2                !
 ! D158  D(46,45,73,64)        166.0917         estimate D2E/DX2                !
 ! D159  D(46,45,73,68)        -71.724          estimate D2E/DX2                !
 ! D160  D(47,45,73,60)        -65.2879         estimate D2E/DX2                !
 ! D161  D(47,45,73,64)         53.509          estimate D2E/DX2                !
 ! D162  D(47,45,73,68)        175.6932         estimate D2E/DX2                !
 ! D163  D(45,46,75,43)       -128.4155         estimate D2E/DX2                !
 ! D164  D(45,46,75,74)        130.7231         estimate D2E/DX2                !
 ! D165  D(45,46,75,86)        -66.3809         estimate D2E/DX2                !
 ! D166  D(45,46,75,95)         16.3215         estimate D2E/DX2                !
 ! D167  D(45,47,95,75)         30.9758         estimate D2E/DX2                !
 ! D168  D(45,47,95,93)       -144.8636         estimate D2E/DX2                !
 ! D169  D(49,48,72,42)        173.9075         estimate D2E/DX2                !
 ! D170  D(49,48,72,52)        -65.2315         estimate D2E/DX2                !
 ! D171  D(49,48,72,56)         54.2302         estimate D2E/DX2                !
 ! D172  D(50,48,72,42)        -66.877          estimate D2E/DX2                !
 ! D173  D(50,48,72,52)         53.984          estimate D2E/DX2                !
 ! D174  D(50,48,72,56)        173.4457         estimate D2E/DX2                !
 ! D175  D(51,48,72,42)         53.5282         estimate D2E/DX2                !
 ! D176  D(51,48,72,52)        174.3892         estimate D2E/DX2                !
 ! D177  D(51,48,72,56)        -66.1491         estimate D2E/DX2                !
 ! D178  D(53,52,54,84)        129.4494         estimate D2E/DX2                !
 ! D179  D(55,52,54,84)       -108.2152         estimate D2E/DX2                !
 ! D180  D(72,52,54,84)          9.4209         estimate D2E/DX2                !
 ! D181  D(53,52,72,42)        -64.3953         estimate D2E/DX2                !
 ! D182  D(53,52,72,48)        177.3754         estimate D2E/DX2                !
 ! D183  D(53,52,72,56)         58.1732         estimate D2E/DX2                !
 ! D184  D(54,52,72,42)         56.949          estimate D2E/DX2                !
 ! D185  D(54,52,72,48)        -61.2804         estimate D2E/DX2                !
 ! D186  D(54,52,72,56)        179.5175         estimate D2E/DX2                !
 ! D187  D(55,52,72,42)        176.0157         estimate D2E/DX2                !
 ! D188  D(55,52,72,48)         57.7863         estimate D2E/DX2                !
 ! D189  D(55,52,72,56)        -61.4158         estimate D2E/DX2                !
 ! D190  D(52,54,84,85)        101.7248         estimate D2E/DX2                !
 ! D191  D(52,54,84,86)        -21.277          estimate D2E/DX2                !
 ! D192  D(57,56,72,42)        -59.5651         estimate D2E/DX2                !
 ! D193  D(57,56,72,48)         58.3008         estimate D2E/DX2                !
 ! D194  D(57,56,72,52)        177.0994         estimate D2E/DX2                !
 ! D195  D(58,56,72,42)         61.0237         estimate D2E/DX2                !
 ! D196  D(58,56,72,48)        178.8896         estimate D2E/DX2                !
 ! D197  D(58,56,72,52)        -62.3118         estimate D2E/DX2                !
 ! D198  D(59,56,72,42)       -179.0504         estimate D2E/DX2                !
 ! D199  D(59,56,72,48)        -61.1845         estimate D2E/DX2                !
 ! D200  D(59,56,72,52)         57.6141         estimate D2E/DX2                !
 ! D201  D(61,60,73,45)        177.3316         estimate D2E/DX2                !
 ! D202  D(61,60,73,64)         58.3258         estimate D2E/DX2                !
 ! D203  D(61,60,73,68)        -62.0064         estimate D2E/DX2                !
 ! D204  D(62,60,73,45)        -62.4779         estimate D2E/DX2                !
 ! D205  D(62,60,73,64)        178.5163         estimate D2E/DX2                !
 ! D206  D(62,60,73,68)         58.1841         estimate D2E/DX2                !
 ! D207  D(63,60,73,45)         56.8086         estimate D2E/DX2                !
 ! D208  D(63,60,73,64)        -62.1972         estimate D2E/DX2                !
 ! D209  D(63,60,73,68)        177.4706         estimate D2E/DX2                !
 ! D210  D(65,64,73,45)        -60.5844         estimate D2E/DX2                !
 ! D211  D(65,64,73,60)         57.0809         estimate D2E/DX2                !
 ! D212  D(65,64,73,68)        176.5403         estimate D2E/DX2                !
 ! D213  D(66,64,73,45)         59.4972         estimate D2E/DX2                !
 ! D214  D(66,64,73,60)        177.1625         estimate D2E/DX2                !
 ! D215  D(66,64,73,68)        -63.3782         estimate D2E/DX2                !
 ! D216  D(67,64,73,45)        179.6272         estimate D2E/DX2                !
 ! D217  D(67,64,73,60)        -62.7075         estimate D2E/DX2                !
 ! D218  D(67,64,73,68)         56.7519         estimate D2E/DX2                !
 ! D219  D(69,68,73,45)        -66.2806         estimate D2E/DX2                !
 ! D220  D(69,68,73,60)        175.4359         estimate D2E/DX2                !
 ! D221  D(69,68,73,64)         55.6149         estimate D2E/DX2                !
 ! D222  D(70,68,73,45)         53.7306         estimate D2E/DX2                !
 ! D223  D(70,68,73,60)        -64.5529         estimate D2E/DX2                !
 ! D224  D(70,68,73,64)        175.6261         estimate D2E/DX2                !
 ! D225  D(71,68,73,45)        173.9022         estimate D2E/DX2                !
 ! D226  D(71,68,73,60)         55.6187         estimate D2E/DX2                !
 ! D227  D(71,68,73,64)        -64.2023         estimate D2E/DX2                !
 ! D228  D(76,74,75,43)        119.6512         estimate D2E/DX2                !
 ! D229  D(76,74,75,46)       -156.6174         estimate D2E/DX2                !
 ! D230  D(76,74,75,86)         39.1585         estimate D2E/DX2                !
 ! D231  D(76,74,75,95)        -59.5087         estimate D2E/DX2                !
 ! D232  D(77,74,75,43)        -60.1468         estimate D2E/DX2                !
 ! D233  D(77,74,75,46)         23.5845         estimate D2E/DX2                !
 ! D234  D(77,74,75,86)       -140.6395         estimate D2E/DX2                !
 ! D235  D(77,74,75,95)        120.6932         estimate D2E/DX2                !
 ! D236  D(75,74,76,82)       -112.2491         estimate D2E/DX2                !
 ! D237  D(75,74,76,89)        161.5231         estimate D2E/DX2                !
 ! D238  D(75,74,76,98)         10.2698         estimate D2E/DX2                !
 ! D239  D(77,74,76,82)         67.5464         estimate D2E/DX2                !
 ! D240  D(77,74,76,89)        -18.6814         estimate D2E/DX2                !
 ! D241  D(77,74,76,98)       -169.9347         estimate D2E/DX2                !
 ! D242  D(75,74,77,80)         10.4358         estimate D2E/DX2                !
 ! D243  D(75,74,77,92)        139.4555         estimate D2E/DX2                !
 ! D244  D(76,74,77,80)       -169.3617         estimate D2E/DX2                !
 ! D245  D(76,74,77,92)        -40.342          estimate D2E/DX2                !
 ! D246  D(43,75,84,54)        -15.2968         estimate D2E/DX2                !
 ! D247  D(43,75,84,85)       -158.5878         estimate D2E/DX2                !
 ! D248  D(46,75,84,54)        -78.091          estimate D2E/DX2                !
 ! D249  D(46,75,84,85)        138.618          estimate D2E/DX2                !
 ! D250  D(74,75,84,54)         81.0316         estimate D2E/DX2                !
 ! D251  D(74,75,84,85)        -62.2594         estimate D2E/DX2                !
 ! D252  D(95,75,84,54)       -163.758          estimate D2E/DX2                !
 ! D253  D(95,75,84,85)         52.951          estimate D2E/DX2                !
 ! D254  D(43,75,95,47)         56.3942         estimate D2E/DX2                !
 ! D255  D(46,75,95,47)        -14.8309         estimate D2E/DX2                !
 ! D256  D(74,75,95,47)       -124.967          estimate D2E/DX2                !
 ! D257  D(86,75,95,47)        113.1831         estimate D2E/DX2                !
 ! D258  D(74,76,81,83)       -147.2297         estimate D2E/DX2                !
 ! D259  D(74,76,81,91)        -48.3049         estimate D2E/DX2                !
 ! D260  D(89,76,81,83)        -41.1572         estimate D2E/DX2                !
 ! D261  D(89,76,81,91)         57.7676         estimate D2E/DX2                !
 ! D262  D(98,76,81,83)         87.0297         estimate D2E/DX2                !
 ! D263  D(98,76,81,91)       -174.0455         estimate D2E/DX2                !
 ! D264  D(74,76,87,88)         43.8807         estimate D2E/DX2                !
 ! D265  D(74,76,87,100)       148.2074         estimate D2E/DX2                !
 ! D266  D(82,76,87,88)        -69.092          estimate D2E/DX2                !
 ! D267  D(82,76,87,100)        35.2347         estimate D2E/DX2                !
 ! D268  D(98,76,87,88)       -167.4767         estimate D2E/DX2                !
 ! D269  D(98,76,87,100)       -63.15           estimate D2E/DX2                !
 ! D270  D(74,76,96,97)        176.1799         estimate D2E/DX2                !
 ! D271  D(82,76,96,97)        -55.8745         estimate D2E/DX2                !
 ! D272  D(89,76,96,97)         32.7351         estimate D2E/DX2                !
 ! D273  D(74,77,78,79)        161.9017         estimate D2E/DX2                !
 ! D274  D(92,77,78,79)         26.9433         estimate D2E/DX2                !
 ! D275  D(74,77,90,91)         -1.236          estimate D2E/DX2                !
 ! D276  D(80,77,90,91)        139.1779         estimate D2E/DX2                !
 ! D277  D(82,81,83,99)         38.4431         estimate D2E/DX2                !
 ! D278  D(91,81,83,99)        -53.3201         estimate D2E/DX2                !
 ! D279  D(82,81,91,90)         12.9095         estimate D2E/DX2                !
 ! D280  D(83,81,91,90)        116.7826         estimate D2E/DX2                !
 ! D281  D(81,83,99,100)         2.4623         estimate D2E/DX2                !
 ! D282  D(81,83,99,101)      -105.2763         estimate D2E/DX2                !
 ! D283  D(88,87,99,83)         64.9229         estimate D2E/DX2                !
 ! D284  D(88,87,99,101)      -175.9049         estimate D2E/DX2                !
 ! D285  D(89,87,99,83)        -40.5432         estimate D2E/DX2                !
 ! D286  D(89,87,99,101)        78.629          estimate D2E/DX2                !
 ! D287  D(92,90,91,81)          2.0692         estimate D2E/DX2                !
 ! D288  D(94,93,95,47)       -165.3228         estimate D2E/DX2                !
 --------------------------------------------------------------------------------
 Trust Radius=3.00D-01 FncErr=1.00D-07 GrdErr=1.00D-06 EigMax=2.50D+02 EigMin=1.00D-04
 Number of steps in this run=    606 maximum allowed number of steps=    606.
 GradGradGradGradGradGradGradGradGradGradGradGradGradGradGradGradGradGrad

 Leave Link  103 at Sat Mar 16 16:07:02 2024, MaxMem=  1879048192 cpu:               0.8 elap:               0.1
 (Enter /packages/apps/gaussian/g16/g16/l202.exe)
 Stoichiometry    C28H60N2O11
 Framework group  C1[X(C28H60N2O11)]
 Deg. of freedom   297
 Full point group                 C1      NOp   1
 Largest Abelian subgroup         C1      NOp   1
 Largest concise Abelian subgroup C1      NOp   1
                         Standard orientation:                         
 ---------------------------------------------------------------------
 Center     Atomic      Atomic             Coordinates (Angstroms)
 Number     Number       Type             X           Y           Z
 ---------------------------------------------------------------------
      1          6           0        5.131288   -4.385472    0.784793
      2          6           0        5.538891   -2.978113    1.203533
      3          1           0        5.477532   -5.123295    1.508224
      4          1           0        4.047705   -4.476580    0.704591
      5          1           0        5.558926   -4.643151   -0.186295
      6          6           0        5.133955   -1.889904    0.195500
      7          1           0        5.100995   -2.742059    2.177330
      8          1           0        6.622601   -2.936600    1.336801
      9          6           0        5.717038   -0.532765    0.624114
     10          1           0        5.595594   -2.147275   -0.763644
     11          1           0        5.333820   -0.261257    1.611836
     12          1           0        6.793167   -0.676358    0.750095
     13          6           0        5.501746    0.642131   -0.350478
     14          6           0        6.592576    1.707533   -0.160321
     15          1           0        5.603259    0.253760   -1.369239
     16          1           0        6.564784    2.075841    0.869053
     17          1           0        7.564786    1.224479   -0.282392
     18          6           0        6.480785    2.876857   -1.130968
     19          1           0        7.301250    3.580629   -0.991815
     20          1           0        6.510834    2.528015   -2.165150
     21          1           0        5.544931    3.418942   -0.992432
     22          6           0        4.110309    1.230048   -0.227426
     23          6           0        3.184230    1.095474   -1.254828
     24          6           0        3.700948    1.858996    0.945204
     25          6           0        1.869985    1.498753   -1.095827
     26          1           0        3.478810    0.602056   -2.171590
     27          6           0        2.394823    2.292136    1.101018
     28          1           0        4.397088    1.979401    1.765830
     29          6           0        1.458340    2.102647    0.089078
     30          1           0        1.141262    1.295863   -1.871393
     31          1           0        2.085371    2.734425    2.040359
     32          6           0        3.634838   -1.879870   -0.024212
     33          6           0        3.098255   -2.215954   -1.260999
     34          6           0        2.754391   -1.531130    0.998301
     35          6           0        1.729214   -2.178437   -1.482521
     36          1           0        3.762596   -2.481846   -2.074077
     37          6           0        1.387886   -1.500055    0.786237
     38          1           0        3.140821   -1.251073    1.969825
     39          6           0        0.855589   -1.826694   -0.460929
     40          1           0        1.343209   -2.393387   -2.471496
     41          1           0        0.721016   -1.207747    1.589165
     42          6           0       -0.623316   -1.725731   -0.684691
     43          1           0       -1.068345   -1.007235    0.003053
     44          1           0       -0.851871   -1.383913   -1.692652
     45          6           0        0.009231    2.398411    0.325596
     46          1           0       -0.626807    1.637032   -0.114316
     47          1           0       -0.217292    2.415987    1.388849
     48          6           0       -2.851438   -2.680182   -0.444830
     49          1           0       -3.435366   -3.595232   -0.418441
     50          1           0       -3.032769   -2.106854    0.458742
     51          1           0       -3.111791   -2.097707   -1.325119
     52          6           0       -1.024445   -3.704131    0.780497
     53          1           0        0.019327   -4.000404    0.734516
     54          1           0       -1.202580   -3.014169    1.606243
     55          1           0       -1.659330   -4.580931    0.885553
     56          6           0       -1.150062   -3.942138   -1.635379
     57          1           0       -1.472426   -3.454364   -2.551737
     58          1           0       -0.090498   -4.177337   -1.683497
     59          1           0       -1.724619   -4.852055   -1.482020
     60          6           0       -1.992896    3.734250   -0.055228
     61          1           0       -2.362956    4.700754   -0.390166
     62          1           0       -2.407979    2.931150   -0.662417
     63          1           0       -2.235405    3.565063    0.992578
     64          6           0        0.077436    4.841433    0.585389
     65          1           0       -0.234676    4.722553    1.620053
     66          1           0        1.161088    4.801709    0.510804
     67          1           0       -0.289913    5.785467    0.190130
     68          6           0       -0.168344    3.898787   -1.648413
     69          1           0        0.909196    3.977294   -1.757744
     70          1           0       -0.539327    3.029370   -2.190435
     71          1           0       -0.647666    4.808464   -2.002365
     72          7           0       -1.395045   -3.026030   -0.494854
     73          7           0       -0.501838    3.729299   -0.208255
     74          6           0       -3.218455    0.532462    0.190818
     75          8           0       -2.134032    0.489606    0.883494
     76          8           0       -4.350976    0.324919    0.752288
     77          8           0       -3.150487    0.780897   -1.065166
     78          8           0       -1.073535    0.894551   -2.631812
     79          1           0       -1.486244    0.810693   -3.491109
     80          1           0       -1.833667    0.833522   -1.984885
     81          8           0       -5.652691   -2.017779   -0.125520
     82          1           0       -5.242261   -1.227892    0.267983
     83          1           0       -6.602519   -1.827040   -0.089007
     84          8           0       -1.794058   -1.392504    2.765704
     85          1           0       -2.503020   -1.201664    3.388570
     86          1           0       -1.916771   -0.674412    2.109032
     87          8           0       -6.439289    1.149039   -0.919663
     88          1           0       -6.119078    0.785497   -1.753707
     89          1           0       -5.695257    0.976735   -0.308305
     90          8           0       -4.808211   -0.756019   -2.604250
     91          1           0       -5.217385   -1.314049   -1.926573
     92          1           0       -4.225181   -0.165482   -2.088168
     93          8           0       -2.051924    2.365954    2.851573
     94          1           0       -2.705295    2.077284    3.495340
     95          1           0       -2.097946    1.647107    2.188209
[...]
 0.00011719,-0.00004438,-0.00005951,-0.00002469,0.00002062,-0.00000952,
 -0.00001170,-0.00000894,0.00019125,0.00002016,-0.00004219,0.00010610,-
 0.00014157,-0.00002947,0.00008030,0.00014337,0.00002418,-0.00002210,0.
 00013005,-0.00004588,0.00000333,0.00000839,-0.00000809,-0.00000554,0.0
 0000754,-0.00000009,0.00000895,0.00004206,0.00001997,0.00000675,-0.000
 03116,-0.00000556,-0.00002602,0.00000845,-0.00001845,0.00001123,0.0000
 1450,0.00000090,-0.00000486,0.00001265,0.00000627,0.00000744,-0.000025
 40,0.00000378,-0.00013322,-0.00004252,-0.00000574,-0.00001459,-0.00003
 192,-0.00000778,-0.00012239,-0.00001506,-0.00000203,-0.00001448,0.0000
 0173,-0.00004703,0.00000965,-0.00004986,-0.00003701,-0.00001439,0.0000
 0050,-0.00000657,0.00001752,0.00001588,0.00000270,-0.00001011,-0.00000
 847,0.00000257,0.00000221,-0.00000780,0.00002645,0.00001967,0.00001141
 ,-0.00000121,-0.00003599,0.00000246,0.00000013,-0.00001642,-0.00002099
 ,0.00000224,-0.00013906,-0.00010935,0.00005693,0.00011795,-0.00000247,
 0.00003945,-0.00170593,0.00003471,-0.00095767,0.00117075,-0.00003897,0
 .00075371,0.00177472,-0.00229308,0.00161884,0.00103390,-0.00063958,0.0
 0032846,0.00035466,-0.00011743,-0.00020768,-0.00006324,0.00006154,0.00
 004053,-0.00043512,0.00005520,0.00032635,-0.00420867,0.00059334,0.0002
 6671,0.00177195,0.00183542,0.00027723,0.00450414,-0.00594910,0.0011236
 0,-0.00002429,-0.00032381,0.00016813,0.00003477,0.00008740,-0.00002346
 ,-0.00007348,0.00033281,-0.00029752,0.00799153,-0.00434652,-0.00102109
 ,0.00116138,0.00374085,0.00217715,-0.00276323,0.00292560,-0.00498905,0
 .00054340,-0.00253331,-0.00016424,0.00090701,0.00110441,-0.00108009,-0
 .00066434,0.00086620,0.00027605,0.00009090,-0.00001038,0.00023817,-0.0
 0000053,0.00006312,-0.00008196,-0.00005507,-0.00006624,-0.00020058,-0.
 00010745,-0.00034760,0.00050138,0.00007956,0.00019118,0.00002352,0.000
 08875,0.00023438,-0.00077255,-0.18703525,-0.29820835,0.08796740,0.1641
 3712,0.29099083,-0.00000039,0.00000110,-0.00000143,-0.00000032,-0.0000
 0209,0.00000384,-0.00000228,0.00000314,-0.00000204,0.00000034,-0.00000
 240,0.00000220,0.00000116,-0.00000045,0.00000012,0.00000247,-0.0000025
 4,-0.00000241,0.00000117,-0.00000074,-0.00000059,-0.00000181,0.0000009
 9,-0.00000049,-0.00000515,-0.00000167,0.00000355,0.,0.00000023,-0.0000
 0016,0.00000225,-0.00000108,0.00000054,-0.00000443,0.00000225,-0.00000
 083,0.00000443,-0.00000236,-0.00000437,-0.00000111,0.00000419,0.000001
 57,-0.00000076,0.00000029,0.00000011,0.00000177,-0.00000086,-0.0000011
 2,-0.00000467,0.00000055,0.00000064,0.00000216,-0.00000072,-0.00000050
 ,-0.00000228,-0.00000111,-0.00000033,0.00000138,-0.00000034,-0.0000007
 9,-0.00000081,0.00000314,0.00000097,0.00000520,-0.00000358,0.00000193,
 -0.00000877,-0.00000054,-0.00001165,-0.00000692,0.00000562,0.00000047,
 0.00000231,0.00000190,0.00000293,0.00000069,-0.00000053,0.00000295,-0.
 00000240,0.00000616,0.00000928,-0.00000410,-0.00000054,-0.00000250,0.0
 0000026,0.00000437,-0.00001002,0.00001790,-0.00000280,0.00000492,0.000
 00167,-0.00000363,0.00000153,0.00000283,0.00000078,0.00000162,-0.00000
 121,0.00000079,-0.00000679,-0.00000112,0.00000305,-0.00000261,0.000000
 22,0.00000593,0.00000257,0.00000019,-0.00000253,0.00000133,-0.00000665
 ,0.00000702,0.00000300,-0.00000258,-0.00000397,0.00000046,0.00001014,0
 .00002146,-0.00000836,0.00000171,-0.00000637,-0.00000228,-0.00000214,-
 0.00000682,0.00000665,-0.00000294,-0.00004473,0.00002853,0.00002097,-0
 .00003376,0.00000277,0.00001822,-0.00002290,-0.00000288,0.00002699,-0.
 00003785,0.00002278,0.00001698,0.00000570,0.00000647,-0.00000924,-0.00
 000065,0.00000765,-0.00006064,-0.00002813,0.00004321,-0.00004679,0.000
 05580,0.00002182,-0.00005021,-0.00003932,-0.00000242,0.00007613,-0.000
 07630,0.00006379,-0.00000675,-0.00001944,0.00002044,0.00000023,0.00000
 074,-0.00000683,-0.00001506,0.00000352,0.00001136,-0.00000432,0.000012
 78,0.00000500,0.00001244,-0.00000725,0.00002595,0.00000606,-0.00000448
 ,-0.00000405,-0.00000027,-0.00000326,-0.00000655,-0.00000075,0.0000058
 1,0.00000142,0.00004454,0.00001868,0.00001220,0.00000667,0.00001674,0.
 00000868,0.00005649,0.00000995,0.00001374,-0.00001018,-0.00001128,0.00
 003353,-0.00000356,0.00002315,0.00002012,0.00000158,-0.00000108,0.0000
 0180,-0.00000591,-0.00000653,-0.00000209,0.00000230,0.00000368,0.00000
 076,-0.00000020,0.00000044,0.00000664,-0.00000700,-0.00000455,-0.00000
 335,0.00002067,0.00000908,0.00000672,0.00000735,0.00001051,0.00000049,
 0.00004307,0.00005154,-0.00006778,-0.00004159,-0.00000303,-0.00003622,
 0.00019709,-0.00028050,0.00129870,-0.00030699,0.00003842,-0.00049618,-
 0.00013204,0.00111494,-0.00147727,-0.00044784,0.00020788,-0.00090462,-
 0.00015904,0.00001944,0.00002500,0.00005659,-0.00000851,-0.00001627,0.
 00015684,-0.00000556,-0.00006030,0.00206857,-0.00010904,-0.00151941,-0
 .00102537,-0.00043971,0.00037225,-0.00260896,0.00203340,0.00157045,0.0
 0007916,0.00009086,-0.00013763,-0.00008312,0.00000536,0.00002264,0.000
 00518,-0.00012832,0.00015747,-0.00658954,-0.00380890,-0.01184694,0.005
 34685,0.00329916,-0.00237748,-0.00123424,-0.00388672,0.00432679,-0.001
 27995,0.00091819,-0.00019064,0.00044389,-0.00094520,0.00071285,0.00054
 618,0.00000718,0.00021081,0.00004849,0.00000635,-0.00015471,-0.0000644
 1,-0.00004633,0.00002895,-0.00000899,0.00004799,0.00013322,0.00026510,
 0.00007647,-0.00020265,-0.00010769,-0.00002742,-0.00014542,-0.00024379
 ,-0.00006908,0.00043012,0.05789079,0.04658126,-0.06467833,-0.07565590,
 -0.07648748,0.08749373,-0.00000392,-0.00000012,0.00000195,0.00000235,0
 .00000521,-0.00000253,0.00000159,-0.00000293,0.00000331,0.00000245,0.0
 0000354,-0.00000085,0.00000020,0.00000078,-0.00000293,-0.00000948,0.00
 000125,0.00000505,-0.00000244,-0.00000063,-0.00000221,0.00000645,-0.00
 000189,0.00000185,0.00000621,-0.00000274,-0.00000172,0.00000307,-0.000
 00085,-0.00000300,-0.00000306,0.00000070,-0.00000259,0.00000780,-0.000
 00051,0.00000149,-0.00000612,0.00000084,0.00000682,-0.00000195,-0.0000
 0556,-0.00000091,0.00000053,-0.00000162,-0.00000145,-0.00000195,0.0000
 0117,-0.00000034,0.00000551,-0.00000041,-0.00000077,-0.00000062,0.0000
 0253,0.00000186,0.00000424,0.00000324,0.00000035,-0.00000161,-0.000001
 29,-0.00000104,-0.00000039,-0.00000418,0.00000004,-0.00000592,0.000005
 49,-0.00000163,0.00000817,0.00000231,0.00000499,0.00000594,-0.00000350
 ,-0.00000666,0.00000583,0.00000273,0.00000022,0.00000009,-0.00000444,-
 0.00000060,0.00000340,0.00000080,-0.00000616,0.00000190,-0.00000190,0.
 00000375,-0.00000308,0.00001223,-0.00000142,-0.00000992,-0.00000196,0.
 00000166,-0.00000453,-0.00000288,-0.00000184,-0.00000801,-0.00000145,-
 0.00000270,0.00000972,0.00000192,0.00000594,0.00000944,-0.00000453,-0.
 00001044,0.00000520,0.00000252,0.00000908,0.00000507,-0.00000004,-0.00
 000341,0.00000007,0.00000131,0.00000620,-0.00000057,0.00000206,0.00000
 278,-0.00000506,-0.00000665,-0.00000832,-0.00000398,0.00000056,0.00000
 218,-0.00001123,0.00000007,-0.00000253,-0.00002247,-0.00002953,-0.0000
 0369,-0.00003306,0.00003985,0.00001841,-0.00000354,0.00000562,0.000005
 09,-0.00000609,0.00001097,0.00000255,-0.00003557,-0.00002687,0.0000202
 9,-0.00001607,-0.00001039,0.00000127,-0.00005603,0.00002741,0.00000966
 ,-0.00000627,0.00000186,0.00000549,-0.00002839,0.00001724,0.00000397,-
 0.00001011,0.00001124,0.00000598,0.00000393,0.00000389,-0.00001789,0.0
 0000870,-0.00000471,-0.00000182,-0.00001956,0.00002091,0.00001784,-0.0
 0000661,0.00000603,0.00000134,0.00000548,0.00001895,0.00002198,-0.0000
 0473,0.00000280,0.00000327,0.00000626,-0.00000438,-0.00000274,-0.00000
 426,0.00000264,0.00000212,-0.00002396,-0.00000897,0.00000586,0.0000070
 5,0.00000970,-0.00000340,-0.00001885,-0.00003136,0.00000748,-0.0000103
 9,-0.00002187,0.00000977,-0.00000289,-0.00001683,-0.00000849,-0.000004
 80,-0.00000496,-0.00000091,0.00000476,0.00000119,0.00000057,-0.0000029
 0,0.00000175,-0.00000131,0.00000041,-0.00000371,0.00001859,0.00000544,
 0.00000087,-0.00000137,-0.00000761,-0.00001019,0.00000031,-0.00000342,
 0.00000141,0.00000081,0.00004183,-0.00001758,-0.00001120,0.00002656,0.
 00001809,-0.00000669,-0.00090883,-0.00017503,0.00046628,0.00046912,0.0
 0002536,0.00006734,0.00083575,0.00012592,-0.00040689,0.00025807,0.0000
 9428,-0.00039567,0.00011963,0.00002369,-0.00010204,-0.00001204,-0.0000
 0528,0.00001939,-0.00015714,-0.00001760,0.00013577,-0.00066919,0.00052
 811,-0.00139705,-0.00047847,0.00009894,0.00038120,0.00006987,-0.000526
 74,0.00253330,0.00012237,-0.00006034,0.00001251,-0.00008900,0.00003788
 ,-0.00001984,-0.00005651,0.00004132,-0.00003186,-0.00050456,-0.0014701
 0,-0.00098705,0.00021602,0.00033526,-0.00005322,-0.00040051,-0.0002285
 5,0.00048115,0.00007622,-0.00003884,-0.00015751,0.00000096,-0.00004543
 ,0.00011421,-0.00002435,0.00002965,0.00005470,0.00009733,0.00008739,0.
 00002184,-0.00006534,-0.00005664,-0.00002492,-0.00005049,-0.00005989,-
 0.00003974,0.00024617,0.00005860,0.00015510,-0.00009389,-0.00004214,-0
 .00021200,-0.00021920,-0.00003892,-0.00002021,-0.13236329,0.04198133,0
 .20900938,-0.01085772,0.01165610,0.02274748,0.14464481,0.00000048,-0.0
 0000073,0.00000076,-0.00000022,0.00000118,-0.00000135,0.00000131,-0.00
 000155,0.00000112,-0.00000073,0.00000137,-0.00000107,-0.00000032,0.000
 00012,-0.00000029,-0.00000076,0.00000148,0.00000075,-0.00000026,0.0000
 0025,0.00000004,0.00000030,-0.00000047,0.00000019,0.00000223,0.0000013
 6,-0.00000089,0.00000011,-0.00000021,-0.00000023,-0.00000078,0.0000004
 2,-0.00000063,0.00000180,-0.00000110,0.00000039,-0.00000213,0.00000124
 ,0.00000204,0.00000077,-0.00000171,-0.00000020,0.00000062,-0.00000036,
 -0.00000076,-0.00000086,0.00000035,-0.00000002,0.00000230,-0.00000031,
 -0.00000026,-0.00000125,0.00000036,0.00000049,0.00000049,0.00000028,0.
 00000024,-0.00000045,-0.00000006,-0.00000006,0.00000076,-0.00000122,-0
 .00000023,-0.00000277,0.00000187,-0.00000067,0.00000324,-0.00000090,0.
 00000376,0.00000257,-0.00000369,-0.00000225,0.00000184,-0.00000004,0.0
 0000111,0.00000074,0.,-0.00000171,0.00000028,-0.00000232,-0.00000184,0
 .00000135,0.00000076,0.00000110,-0.00000132,-0.00000247,0.00000197,-0.
 00000348,0.00000231,-0.00000025,-0.00000122,0.00000132,-0.00000187,-0.
 00000078,-0.00000060,-0.00000028,0.00000048,-0.00000157,0.00000159,0.0
 0000071,-0.00000234,0.00000030,0.00000095,-0.00000264,0.00000100,0.000
 00054,0.00000134,-0.00000062,0.00000085,-0.00000283,0.00000075,0.00000
 045,0.00000213,-0.00000056,-0.00000220,-0.00000622,0.00000045,-0.00000
 039,0.00000256,-0.00000027,0.00000011,0.00000402,-0.00000211,0.0000074
 6,0.00000779,-0.00000485,-0.00001175,0.00001471,0.00000325,-0.00000429
 ,0.00000490,0.00000107,-0.00001144,0.00002106,-0.00000638,-0.00000395,
 -0.00000152,0.00000229,-0.00000213,-0.00000103,-0.00000016,-0.00000087
 ,0.00001545,0.00000509,0.00000424,0.00000044,-0.00001047,-0.00000120,0
 .00001025,-0.00001441,-0.00001834,0.00000902,0.00000166,0.00000550,0.0
 0001404,-0.00001686,0.00000122,-0.00000137,0.00000364,0.00000328,0.000
 00549,-0.00000128,0.00000051,-0.00000537,-0.00000498,0.00000538,0.0000
 0768,0.00000176,-0.00000198,0.00000061,0.00000212,0.00000172,-0.000000
 40,-0.00000126,-0.00000138,-0.00000127,-0.00000065,-0.00002003,0.00000
 218,0.00000396,-0.00000381,-0.00000555,0.00000324,-0.00000459,0.000003
 01,0.00000083,-0.00000677,0.00000338,-0.00000422,0.00000015,-0.0000033
 0,-0.00000206,-0.00000365,0.00000139,-0.00000115,0.00000232,0.00000169
 ,-0.00000080,-0.00000208,-0.00000202,0.00000168,0.00000016,-0.00000028
 ,0.00000359,0.00000251,0.00000192,-0.00000077,-0.00000342,0.00000233,0
 .00000011,-0.00000186,-0.00000321,0.00000065,0.00001130,-0.00002487,0.
 00000664,0.00001758,-0.00000907,0.00000104,-0.00017629,-0.00002447,-0.
 00001713,0.00011920,-0.00003670,0.00006570,0.00015932,-0.00005078,0.00
 000915,0.00006144,0.00000144,0.00001257,0.00003144,-0.00001424,-0.0000
 1299,-0.00000817,0.00000519,0.00000354,-0.00003367,0.00000436,0.000020
 01,0.00118288,-0.00039509,0.00117746,0.00023525,-0.00007373,-0.0000887
 2,-0.00144422,0.00070787,-0.00272824,-0.00000729,-0.00006449,0.0000408
 0,0.00001008,0.00003512,-0.00000769,-0.00001312,0.00005026,-0.00004865
 ,-0.00159467,-0.00253737,-0.00061124,0.00041904,0.00027288,-0.00013051
 ,-0.00021532,-0.00008518,0.00015858,0.00011365,-0.00004065,0.00002171,
 -0.00013029,0.00001811,-0.00002551,-0.00003527,-0.00000563,-0.00002314
 ,0.00003062,-0.00002947,0.00002077,-0.00001312,0.00002655,-0.00001359,
 -0.00000889,0.00001079,-0.00001034,0.00001465,-0.00016427,0.00006924,-
 0.00000328,0.00013171,-0.00002062,-0.00002172,0.00007494,-0.00008238,0
 .07102306,-0.07852732,-0.14162935,-0.01728983,0.01150368,0.03188705,-0
 .05237062,0.06914699,-0.00000036,0.00000007,0.,-0.00000071,0.00000001,
 0.00000139,-0.00000080,0.00000076,-0.00000019,0.00000029,-0.00000035,0
 .00000090,0.00000065,-0.00000002,-0.00000078,0.00000012,-0.00000020,-0
 .00000025,0.00000035,-0.00000061,-0.00000072,-0.00000002,0.00000023,-0
 .00000003,-0.00000076,0.00000025,0.00000112,0.00000033,-0.00000012,-0.
 00000073,0.00000038,-0.00000037,-0.00000056,-0.00000027,0.,0.00000004,
 -0.00000004,-0.00000026,0.00000007,-0.00000053,0.00000012,0.00000071,0
 .00000010,-0.00000028,-0.00000071,0.00000012,-0.00000012,-0.00000069,-
 0.00000015,0.00000010,0.00000008,0.00000027,0.00000022,0.00000029,0.00
 000010,0.00000019,0.00000009,0.00000008,-0.00000041,-0.00000067,-0.000
 00020,0.00000007,0.00000035,0.00000040,0.00000033,-0.00000002,-0.00000
 062,0.,-0.00000199,-0.00000038,0.00000040,-0.00000134,0.00000177,0.000
 00089,0.00000091,0.00000059,-0.00000095,0.00000026,-0.00000039,0.00000
 221,0.00000222,-0.00000113,-0.00000034,0.00000007,-0.00000041,0.000002
 23,-0.00000319,0.00000283,-0.00000018,0.00000131,-0.00000036,-0.000001
 86,-0.00000019,-0.00000014,0.00000041,0.00000082,-0.00000067,-0.000000
 38,-0.00000264,0.00000089,0.00000062,-0.00000241,0.00000008,0.00000024
 ,0.00000047,0.00000050,-0.00000045,-0.00000001,-0.00000494,0.00000357,
 0.00000448,-0.00000204,-0.00000103,0.00000007,0.00000266,-0.00000054,-
 0.00000072,0.00000036,-0.00000078,-0.00000157,-0.00000245,-0.00000165,
 0.00000303,0.00000239,0.00000514,0.00000210,-0.00000040,0.00000012,0.0
 0000633,0.00000310,-0.00000317,-0.00000186,0.00000396,-0.00000618,0.00
 000806,-0.00000039,-0.00000069,0.00000353,-0.00000641,-0.00000206,0.00
 000402,0.00002131,-0.00000409,-0.00000068,0.00000587,-0.00000924,0.000
 00614,0.00000262,0.00000165,0.00001959,0.00001988,-0.00000230,-0.00000
 245,-0.00000062,-0.00001259,0.00001539,-0.00000104,0.00000167,-0.00000
 470,-0.00000866,0.00001054,0.00001464,-0.00000051,0.00000206,0.0000036
 5,-0.00000274,-0.00000080,0.00000158,0.00000281,0.00000094,-0.00000236
 ,-0.00000139,0.00000082,0.00000103,0.00000194,-0.00000125,0.00000222,0
 .00000558,-0.00000009,0.00000326,0.00000312,0.00000544,0.00000102,0.00
 000855,-0.00000031,0.00000302,-0.00000470,-0.00000728,0.00001358,-0.00
 000070,0.00000237,0.00000537,-0.00000083,-0.00000120,0.00000070,-0.000
 00047,-0.00000113,-0.00000040,0.,0.00000103,0.,0.00000008,-0.00000170,
 0.00000653,-0.00000053,-0.00000076,-0.00000110,0.00000373,0.00000123,0
 .00000193,0.00000125,0.00000277,0.00000039,-0.00002232,0.00000646,-0.0
 0001041,-0.00000435,0.00000275,-0.00001164,0.00005598,-0.00004035,0.00
 020799,-0.00007364,0.00000971,-0.00013009,-0.00006524,0.00000604,-0.00
 030417,-0.00004544,0.00002707,-0.00017612,-0.00001569,0.00000190,-0.00
 001172,0.00000886,-0.00000172,0.00000075,0.00000925,-0.00000024,0.0000
 0564,-0.00196553,0.00082567,-0.00050214,0.00005400,0.00004603,0.000233
 60,0.00197807,-0.00122077,0.00077182,0.00005132,0.00000684,-0.00007907
 ,-0.00005746,0.00001579,0.00002039,-0.00000526,-0.00003261,0.00006327,
 -0.00052346,-0.00017845,0.00049303,-0.00010275,-0.00013267,-0.00006499
 ,0.00024292,0.00009735,0.00025806,-0.00010101,0.00005994,0.00002258,0.
 00002212,-0.00001592,-0.00003900,0.00009383,0.00000916,0.00002973,0.00
 004349,0.00001512,-0.00006450,-0.00004150,-0.00003221,0.00001314,-0.00
 001405,0.00001749,0.00005515,0.00015715,0.00005101,-0.00012779,-0.0001
 0481,-0.00004382,-0.00005561,-0.00008138,-0.00002359,0.00024902,0.2281
 5712,-0.10175915,-0.38543892,0.00474575,-0.00969136,-0.01280274,-0.232
 44828,0.11199161,0.39728495\\-0.00000070,0.,-0.00000047,0.00000046,0.,
 0.00000001,0.00000007,-0.00000041,0.,0.00000012,-0.00000020,-0.0000001
 8,-0.00000009,-0.00000014,-0.00000022,-0.00000054,0.00000037,-0.000000
 59,0.00000002,-0.00000023,-0.00000022,-0.00000027,-0.00000024,-0.00000
 015,0.00000017,-0.00000049,-0.00000001,-0.00000010,-0.00000019,0.,0.,-
 0.00000031,-0.00000032,-0.00000029,-0.00000013,-0.00000023,-0.00000025
 ,0.00000007,0.00000024,0.00000071,-0.00000003,0.00000044,-0.00000009,-
 0.00000018,-0.00000025,0.00000007,-0.00000040,-0.00000045,-0.00000022,
 -0.00000005,-0.00000014,0.00000021,-0.00000064,-0.00000093,0.00000023,
 0.00000002,-0.00000002,-0.00000008,0.,0.00000037,-0.00000024,0.0000000
 7,0.00000010,-0.00000036,-0.00000065,0.,0.00000068,0.00000051,0.000000
 15,-0.00000009,0.00000028,0.00000004,0.00000008,-0.00000039,0.00000022
 ,0.,0.00000023,-0.00000029,0.00000040,-0.00000020,0.00000009,0.0000001
 1,-0.00000016,-0.00000004,-0.00000004,-0.00000017,-0.00000100,-0.00000
 049,-0.00000012,-0.00000035,0.,-0.00000008,0.00000028,0.00000076,0.000
 00031,-0.00000116,-0.00000041,0.00000004,0.00000041,-0.00000037,0.0000
 0003,0.00000055,0.00000041,-0.00000041,0.00000014,-0.00000012,-0.00000
 004,-0.00000007,0.00000008,-0.00000028,-0.00000003,0.00000006,-0.00000
 018,0.00000004,-0.00000091,0.00000028,0.00000072,-0.00000020,-0.000000
 03,-0.00000044,0.00000071,-0.00000023,0.00000036,-0.00000013,-0.000000
 52,-0.00000084,-0.00000051,-0.00000110,0.00000010,0.,0.00000022,0.0000
 0022,0.00000045,0.00000025,0.00000142,-0.00000088,-0.00000013,0.000000
 72,0.00000064,-0.00000028,-0.00000077,0.00000010,0.,0.00000054,0.00000
 042,0.00000025,-0.00000002,0.00000100,-0.00000027,-0.00000033,0.000000
 13,-0.00000009,-0.00000014,-0.00000004,-0.00000038,0.00000039,0.000000
 48,-0.00000011,-0.00000020,-0.00000016,0.00000071,-0.00000097,0.000000
 04,0.00000006,-0.00000005,-0.00000051,0.00000046,0.00000006,-0.0000001
 1,0.,0.00000020,-0.00000017,-0.00000025,-0.00000025,-0.00000010,0.0000
 0022,-0.00000026,0.00000037,0.00000105,0.00000046,0.00000020,-0.000000
 15,0.00000002,-0.00000006,-0.00000014,-0.00000022,-0.00000008,-0.00000
 040,0.00000025,0.00000001,0.00000013,-0.00000019,0.00000011,-0.0000001
 4,0.00000055,0.00000027,-0.00000004,0.00000002,0.00000016,0.00000013,0
 .00000008,0.00000027,-0.00000005,-0.00000011,0.00000003,-0.00000009,0.
 00000005,0.00000030,-0.00000022,-0.00000039,-0.00000004,0.00000027,0.0
 0000008,-0.00000005,0.00000050,0.00000010,-0.00000032,-0.00000081,0.00
 000048,-0.00000062,0.00000069,-0.00000010,0.00000072,0.00000228,0.0000
 0016,0.00000073,-0.00000041,-0.00000056,-0.00000089,0.00000022,-0.0000
 0035,0.00000003,0.00000034,0.00000093,-0.00000012,0.00000012,-0.000000
 49,-0.00000025,0.00000003,0.00000057,-0.00000188,0.00000002,-0.0000000
 4,-0.00000002,0.00000040,0.00000070,0.00000056,0.00000064,0.00000010,-
 0.00000081,0.00000037,-0.00000003,-0.00000004,-0.00000031,0.00000036,0
 .00000053,-0.00000019,-0.00000017,0.00000015,-0.00000056,-0.00000019,-
 0.00000021,0.00000038,0.00000039,-0.00000009,0.00000042,0.00000024,-0.
 00000015,0.00000047,-0.00000056,-0.00000049,-0.00000052,0.00000039,0.0
 0000032,0.00000096,0.00000063,-0.00000049,-0.00000078,-0.00000003,0.00
 000063,0.00000025,0.,0.00000033,-0.00000040,-0.00000009,0.00000125,0.0
 0000027,-0.00000051,-0.00000083,-0.00000010,0.00000050,0.00000012,0.00
 000006,0.00000009,0.00000031,0.00000067,-0.00000007,-0.00000004,-0.000
 00027,0.00000031,-0.00000008,0.00000024,0.00000030\\\@


 Happiness is a conscious choice, not an automatic response.
 -- Mildred Barthel
 Job cpu time:      26 days 17 hours  7 minutes 59.2 seconds.
 Elapsed time:       1 days  8 hours 30 minutes 11.5 seconds.
 File lengths (MBytes):  RWF=  64694 Int=      0 D2E=      0 Chk=    206 Scr=      1
 Normal termination of Gaussian 16 at Mon Mar 18 01:11:43 2024.
