 Entering Gaussian System, Link 0=g16
 Input=dry-ofreq.gjf
 Output=dry-ofreq.log
 Initial command:
 /packages/apps/gaussian/g16/g16/l1.exe "/scratch/mdturne9/3-5-methyl/oFreq/Gau-1027619.inp" -scrdir="/scratch/mdturne9/3-5-methyl/oFreq/"
 Entering Link 1 = /packages/apps/gaussian/g16/g16/l1.exe PID=   1027620.
  
 Copyright (c) 1988,1990,1992,1993,1995,1998,2003,2009,2016,
            Gaussian, Inc.  All Rights Reserved.
  
 This is part of the Gaussian(R) 16 program.  It is based on
 the Gaussian(R) 09 system (copyright 2009, Gaussian, Inc.),
 the Gaussian(R) 03 system (copyright 2003, Gaussian, Inc.),
 the Gaussian(R) 98 system (copyright 1998, Gaussian, Inc.),
 the Gaussian(R) 94 system (copyright 1995, Gaussian, Inc.),
 the Gaussian 92(TM) system (copyright 1992, Gaussian, Inc.),
 the Gaussian 90(TM) system (copyright 1990, Gaussian, Inc.),
 the Gaussian 88(TM) system (copyright 1988, Gaussian, Inc.),
 the Gaussian 86(TM) system (copyright 1986, Carnegie Mellon
 University), and the Gaussian 82(TM) system (copyright 1983,
 Carnegie Mellon University). Gaussian is a federally registered
 trademark of Gaussian, Inc.
  
 This software contains proprietary and confidential information,
 including trade secrets, belonging to Gaussian, Inc.
  
 This software is provided under written license and may be
 used, copied, transmitted, or stored only in accord with that
 written license.
  
 The following legend is applicable only to US Government
 contracts under FAR:
  
                    RESTRICTED RIGHTS LEGEND
  
 Use, reproduction and disclosure by the US Government is
 subject to restrictions as set forth in subparagraphs (a)
 and (c) of the Commercial Computer Software - Restricted
 Rights clause in FAR 52.227-19.
  
 Gaussian, Inc.
 340 Quinnipiac St., Bldg. 40, Wallingford CT 06492
  
  
 ---------------------------------------------------------------
 Warning -- This program may not be used in any manner that
 competes with the business of Gaussian, Inc. or will provide
 assistance to any competitor of Gaussian, Inc.  The licensee
 of this program is prohibited from giving any competitor of
 Gaussian, Inc. access to this program.  By using this program,
 the user acknowledges that Gaussian, Inc. is engaged in the
 business of creating and licensing software in the field of
 computational chemistry and represents and warrants to the
 licensee that it is not a competitor of Gaussian, Inc. and that
 it will not use this program in any manner prohibited above.
 ---------------------------------------------------------------
  

 Cite this work as:
 Gaussian 16, Revision A.03,
 M. J. Frisch, G. W. Trucks, H. B. Schlegel, G. E. Scuseria, 
 M. A. Robb, J. R. Cheeseman, G. Scalmani, V. Barone, 
 G. A. Petersson, H. Nakatsuji, X. Li, M. Caricato, A. V. Marenich, 
 J. Bloino, B. G. Janesko, R. Gomperts, B. Mennucci, H. P. Hratchian, 
 J. V. Ortiz, A. F. Izmaylov, J. L. Sonnenberg, D. Williams-Young, 
 F. Ding, F. Lipparini, F. Egidi, J. Goings, B. Peng, A. Petrone, 
 T. Henderson, D. Ranasinghe, V. G. Zakrzewski, J. Gao, N. Rega, 
 G. Zheng, W. Liang, M. Hada, M. Ehara, K. Toyota, R. Fukuda, 
 J. Hasegawa, M. Ishida, T. Nakajima, Y. Honda, O. Kitao, H. Nakai, 
 T. Vreven, K. Throssell, J. A. Montgomery, Jr., J. E. Peralta, 
 F. Ogliaro, M. J. Bearpark, J. J. Heyd, E. N. Brothers, K. N. Kudin, 
 V. N. Staroverov, T. A. Keith, R. Kobayashi, J. Normand, 
 K. Raghavachari, A. P. Rendell, J. C. Burant, S. S. Iyengar, 
 J. Tomasi, M. Cossi, J. M. Millam, M. Klene, C. Adamo, R. Cammi, 
 J. W. Ochterski, R. L. Martin, K. Morokuma, O. Farkas, 
 J. B. Foresman, and D. J. Fox, Gaussian, Inc., Wallingford CT, 2016.
 
 ******************************************
 Gaussian 16:  ES64L-G16RevA.03 25-Dec-2016
                16-Mar-2024 
 ******************************************
 %nprocshared=20
 Will use up to   20 processors via shared memory.
 %mem=13GB
 %chk=dry-ofreq.chk
 ---------------------------------
 #p opt freq wb97xd/6-311+g(2d,2p)
 ---------------------------------
 1/18=20,19=15,26=3,38=1/1,3;
 2/9=110,12=2,17=6,18=5,40=1/2;
 3/5=4,6=6,7=212,11=2,25=1,30=1,71=1,74=-58/1,2,3;
 4//1;
 5/5=2,38=5/2;
 6/7=2,8=2,9=2,10=2,28=1/1;
 7//1,2,3,16;
 1/18=20,19=15,26=3/3(2);
 2/9=110/2;
 99//99;
 2/9=110/2;
 3/5=4,6=6,7=212,11=2,25=1,30=1,71=1,74=-58/1,2,3;
 4/5=5,16=3,69=1/1;
 5/5=2,38=5/2;
 7//1,2,3,16;
 1/18=20,19=15,26=3/3(-5);
 2/9=110/2;
 6/7=2,8=2,9=2,10=2,19=2,28=1/1;
 99/9=1/99;
 Leave Link    1 at Sat Mar 16 16:05:02 2024, MaxMem=  1744830464 cpu:               2.1 elap:               0.5
 (Enter /packages/apps/gaussian/g16/g16/l101.exe)
 -----------------------
 no water double bi high
 -----------------------
 Symbolic Z-matrix:
 Charge =  0 Multiplicity = 1
 C                     4.89814  -3.77745  -0.64418 
 C                     5.21047  -2.50468   0.13367 
 H                     5.5503   -4.5946   -0.33582 
 H                     3.86607  -4.09284  -0.48926 
 H                     5.03911  -3.62264  -1.71575 
 C                     4.36558  -1.29634  -0.29873 
 H                     5.06993  -2.68109   1.20384 
 H                     6.26489  -2.24898   0.00508 
 C                     4.80434  -0.03711   0.47447 
 H                     4.57323  -1.11955  -1.3593 
 H                     4.46329  -0.11433   1.51098 
 H                     5.89653  -0.04621   0.5208 
 C                     4.39503   1.32912  -0.10857 
 C                     5.11785   2.45463   0.65158 
 H                     4.74476   1.35821  -1.14607 
 H                     4.79786   2.43618   1.69738 
 H                     6.1888    2.23737   0.65371 
 C                     4.88258   3.84225   0.06751 
 H                     5.44801   4.59654   0.61468 
 H                     5.1949    3.88359  -0.97801 
 H                     3.82814   4.11606   0.10873 
 C                     2.89788   1.5642   -0.13175 
 C                     2.23887   1.90565  -1.30721 
 C                     2.13663   1.40737   1.02314 
 C                     0.85528   2.00763  -1.34913 
 H                     2.80987   2.03486  -2.21854 
 C                     0.75854   1.49891   0.98855 
 H                     2.61915   1.14104   1.95459 
 C                     0.09808   1.78306  -0.20545 
 H                     0.35745   2.19064  -2.29348 
 H                     0.17401   1.2803    1.87421 
 C                     2.87947  -1.5704   -0.17402 
 C                     2.04102  -1.40316  -1.26845 
 C                     2.30276  -1.91932   1.04548 
 C                     0.66581  -1.49482  -1.14132 
 H                     2.46654  -1.12711  -2.22487 
 C                     0.92752  -2.01865   1.1803 
 H                     2.92836  -2.05585   1.91899 
 C                     0.09108  -1.78653   0.09154 
 H                     0.0224   -1.27002  -1.98354 
 H                     0.49499  -2.20804   2.15511 
 C                    -1.39504  -1.66796   0.25134 
 H                    -1.66189  -1.31295   1.24478 
 H                    -1.77862  -0.99449  -0.50907 
 C                    -1.39573   1.66367  -0.25915 
 H                    -1.73298   1.30809  -1.23082 
 H                    -1.72381   0.99021   0.5269 
 C                    -3.63948  -2.56206   0.03205 
 H                    -4.23048  -3.47109  -0.05908 
 H                    -3.85752  -2.0555    0.97054 
 H                    -3.81275  -1.9198   -0.82831 
 C                    -1.94597  -3.87945   1.17254 
 H                    -0.88985  -4.1352    1.18737 
 H                    -2.23393  -3.37361   2.09279 
 H                    -2.54246  -4.7765    1.02163 
 C                    -1.85724  -3.57667  -1.25976 
 H                    -2.01913  -2.83342  -2.04053 
 H                    -0.81883  -3.89398  -1.24188 
 H                    -2.50961  -4.43543  -1.40127 
 C                    -3.61866   2.55797   0.12304 
 H                    -4.20109   3.46721   0.25714 
 H                    -3.90534   2.05129  -0.79674 
 H                    -3.7276    1.91627   0.99424 
 C                    -1.74747   3.57456   1.27956 
 H                    -1.85311   2.8329    2.07136 
 H                    -0.71315   3.892     1.1862 
 H                    -2.38786   4.43368   1.46626 
 C                    -2.01289   3.87402  -1.14006 
 H                    -0.96051   4.12883  -1.23287 
 H                    -2.36842   3.36764  -2.03604 
 H                    -2.596     4.77163  -0.94631 
 N                    -2.19416  -2.94524   0.04472 
 N                    -2.17805   2.94103   0.00395 
 C                    -3.25845   0.06585  -2.76402 
 O                    -2.242    -0.59572  -2.49524 
 O                    -3.41489   1.30205  -2.78364 
 O                    -4.38287  -0.69946  -3.04352 
 H                    -5.07403  -0.06549  -3.2467 
 C                    -3.05171  -0.06093   2.88705 
 O                    -2.0564    0.59654   2.53993 
 O                    -3.21196  -1.29648   2.91659 
 O                    -4.14655   0.70881   3.25642 
 H                    -4.82261   0.07749   3.51193 
 
 Add virtual bond connecting atoms O80        and H47        Dist= 3.93D+00.
 Add virtual bond connecting atoms O81        and H50        Dist= 4.13D+00.
 Add virtual bond connecting atoms O75        and H44        Dist= 3.93D+00.
 Add virtual bond connecting atoms O76        and H62        Dist= 4.12D+00.
 ITRead=  0  0  0  0  0  0  0  0  0  0  0  0  0  0  0  0  0  0  0  0
 ITRead=  0  0  0  0  0  0  0  0  0  0  0  0  0  0  0  0  0  0  0  0
 ITRead=  0  0  0  0  0  0  0  0  0  0  0  0  0  0  0  0  0  0  0  0
 ITRead=  0  0  0  0  0  0  0  0  0  0  0  0  0  0  0  0  0  0  0  0
 ITRead=  0  0  0
 MicOpt= -1 -1 -1 -1 -1 -1 -1 -1 -1 -1 -1 -1 -1 -1 -1 -1 -1 -1 -1 -1
 MicOpt= -1 -1 -1 -1 -1 -1 -1 -1 -1 -1 -1 -1 -1 -1 -1 -1 -1 -1 -1 -1
 MicOpt= -1 -1 -1 -1 -1 -1 -1 -1 -1 -1 -1 -1 -1 -1 -1 -1 -1 -1 -1 -1
 MicOpt= -1 -1 -1 -1 -1 -1 -1 -1 -1 -1 -1 -1 -1 -1 -1 -1 -1 -1 -1 -1
 MicOpt= -1 -1 -1
 NAtoms=     83 NQM=       83 NQMF=       0 NMMI=      0 NMMIF=      0
                NMic=       0 NMicF=      0.
                    Isotopes and Nuclear Properties:
 (Nuclear quadrupole moments (NQMom) in fm**2, nuclear magnetic moments (NMagM)
  in nuclear magnetons)

  Atom         1           2           3           4           5           6           7           8           9          10
 IAtWgt=          12          12           1           1           1          12           1           1          12           1
 AtmWgt=  12.0000000  12.0000000   1.0078250   1.0078250   1.0078250  12.0000000   1.0078250   1.0078250  12.0000000   1.0078250
 NucSpn=           0           0           1           1           1           0           1           1           0           1
 AtZEff=  -0.0000000  -0.0000000  -0.0000000  -0.0000000  -0.0000000  -0.0000000  -0.0000000  -0.0000000  -0.0000000  -0.0000000
 NQMom=    0.0000000   0.0000000   0.0000000   0.0000000   0.0000000   0.0000000   0.0000000   0.0000000   0.0000000   0.0000000
 NMagM=    0.0000000   0.0000000   2.7928460   2.7928460   2.7928460   0.0000000   2.7928460   2.7928460   0.0000000   2.7928460
 AtZNuc=   6.0000000   6.0000000   1.0000000   1.0000000   1.0000000   6.0000000   1.0000000   1.0000000   6.0000000   1.0000000

  Atom        11          12          13          14          15          16          17          18          19          20
 IAtWgt=           1           1          12          12           1           1           1          12           1           1
 AtmWgt=   1.0078250   1.0078250  12.0000000  12.0000000   1.0078250   1.0078250   1.0078250  12.0000000   1.0078250   1.0078250
 NucSpn=           1           1           0           0           1           1           1           0           1           1
 AtZEff=  -0.0000000  -0.0000000  -0.0000000  -0.0000000  -0.0000000  -0.0000000  -0.0000000  -0.0000000  -0.0000000  -0.0000000
 NQMom=    0.0000000   0.0000000   0.0000000   0.0000000   0.0000000   0.0000000   0.0000000   0.0000000   0.0000000   0.0000000
 NMagM=    2.7928460   2.7928460   0.0000000   0.0000000   2.7928460   2.7928460   2.7928460   0.0000000   2.7928460   2.7928460
 AtZNuc=   1.0000000   1.0000000   6.0000000   6.0000000   1.0000000   1.0000000   1.0000000   6.0000000   1.0000000   1.0000000

  Atom        21          22          23          24          25          26          27          28          29          30
 IAtWgt=           1          12          12          12          12           1          12           1          12           1
 AtmWgt=   1.0078250  12.0000000  12.0000000  12.0000000  12.0000000   1.0078250  12.0000000   1.0078250  12.0000000   1.0078250
 NucSpn=           1           0           0           0           0           1           0           1           0           1
 AtZEff=  -0.0000000  -0.0000000  -0.0000000  -0.0000000  -0.0000000  -0.0000000  -0.0000000  -0.0000000  -0.0000000  -0.0000000
 NQMom=    0.0000000   0.0000000   0.0000000   0.0000000   0.0000000   0.0000000   0.0000000   0.0000000   0.0000000   0.0000000
 NMagM=    2.7928460   0.0000000   0.0000000   0.0000000   0.0000000   2.7928460   0.0000000   2.7928460   0.0000000   2.7928460
 AtZNuc=   1.0000000   6.0000000   6.0000000   6.0000000   6.0000000   1.0000000   6.0000000   1.0000000   6.0000000   1.0000000

  Atom        31          32          33          34          35          36          37          38          39          40
 IAtWgt=           1          12          12          12          12           1          12           1          12           1
 AtmWgt=   1.0078250  12.0000000  12.0000000  12.0000000  12.0000000   1.0078250  12.0000000   1.0078250  12.0000000   1.0078250
 NucSpn=           1           0           0           0           0           1           0           1           0           1
 AtZEff=  -0.0000000  -0.0000000  -0.0000000  -0.0000000  -0.0000000  -0.0000000  -0.0000000  -0.0000000  -0.0000000  -0.0000000
 NQMom=    0.0000000   0.0000000   0.0000000   0.0000000   0.0000000   0.0000000   0.0000000   0.0000000   0.0000000   0.0000000
 NMagM=    2.7928460   0.0000000   0.0000000   0.0000000   0.0000000   2.7928460   0.0000000   2.7928460   0.0000000   2.7928460
 AtZNuc=   1.0000000   6.0000000   6.0000000   6.0000000   6.0000000   1.0000000   6.0000000   1.0000000   6.0000000   1.0000000

  Atom        41          42          43          44          45          46          47          48          49          50
 IAtWgt=           1          12           1           1          12           1           1          12           1           1
 AtmWgt=   1.0078250  12.0000000   1.0078250   1.0078250  12.0000000   1.0078250   1.0078250  12.0000000   1.0078250   1.0078250
 NucSpn=           1           0           1           1           0           1           1           0           1           1
 AtZEff=  -0.0000000  -0.0000000  -0.0000000  -0.0000000  -0.0000000  -0.0000000  -0.0000000  -0.0000000  -0.0000000  -0.0000000
 NQMom=    0.0000000   0.0000000   0.0000000   0.0000000   0.0000000   0.0000000   0.0000000   0.0000000   0.0000000   0.0000000
 NMagM=    2.7928460   0.0000000   2.7928460   2.7928460   0.0000000   2.7928460   2.7928460   0.0000000   2.7928460   2.7928460
 AtZNuc=   1.0000000   6.0000000   1.0000000   1.0000000   6.0000000   1.0000000   1.0000000   6.0000000   1.0000000   1.0000000

  Atom        51          52          53          54          55          56          57          58          59          60
 IAtWgt=           1          12           1           1           1          12           1           1           1          12
 AtmWgt=   1.0078250  12.0000000   1.0078250   1.0078250   1.0078250  12.0000000   1.0078250   1.0078250   1.0078250  12.0000000
 NucSpn=           1           0           1           1           1           0           1           1           1           0
 AtZEff=  -0.0000000  -0.0000000  -0.0000000  -0.0000000  -0.0000000  -0.0000000  -0.0000000  -0.0000000  -0.0000000  -0.0000000
 NQMom=    0.0000000   0.0000000   0.0000000   0.0000000   0.0000000   0.0000000   0.0000000   0.0000000   0.0000000   0.0000000
 NMagM=    2.7928460   0.0000000   2.7928460   2.7928460   2.7928460   0.0000000   2.7928460   2.7928460   2.7928460   0.0000000
 AtZNuc=   1.0000000   6.0000000   1.0000000   1.0000000   1.0000000   6.0000000   1.0000000   1.0000000   1.0000000   6.0000000

  Atom        61          62          63          64          65          66          67          68          69          70
 IAtWgt=           1           1           1          12           1           1           1          12           1           1
 AtmWgt=   1.0078250   1.0078250   1.0078250  12.0000000   1.0078250   1.0078250   1.0078250  12.0000000   1.0078250   1.0078250
 NucSpn=           1           1           1           0           1           1           1           0           1           1
 AtZEff=  -0.0000000  -0.0000000  -0.0000000  -0.0000000  -0.0000000  -0.0000000  -0.0000000  -0.0000000  -0.0000000  -0.0000000
 NQMom=    0.0000000   0.0000000   0.0000000   0.0000000   0.0000000   0.0000000   0.0000000   0.0000000   0.0000000   0.0000000
 NMagM=    2.7928460   2.7928460   2.7928460   0.0000000   2.7928460   2.7928460   2.7928460   0.0000000   2.7928460   2.7928460
 AtZNuc=   1.0000000   1.0000000   1.0000000   6.0000000   1.0000000   1.0000000   1.0000000   6.0000000   1.0000000   1.0000000

  Atom        71          72          73          74          75          76          77          78          79          80
 IAtWgt=           1          14          14          12          16          16          16           1          12          16
 AtmWgt=   1.0078250  14.0030740  14.0030740  12.0000000  15.9949146  15.9949146  15.9949146   1.0078250  12.0000000  15.9949146
 NucSpn=           1           2           2           0           0           0           0           1           0           0
 AtZEff=  -0.0000000  -0.0000000  -0.0000000  -0.0000000  -0.0000000  -0.0000000  -0.0000000  -0.0000000  -0.0000000  -0.0000000
 NQMom=    0.0000000   2.0440000   2.0440000   0.0000000   0.0000000   0.0000000   0.0000000   0.0000000   0.0000000   0.0000000
 NMagM=    2.7928460   0.4037610   0.4037610   0.0000000   0.0000000   0.0000000   0.0000000   2.7928460   0.0000000   0.0000000
 AtZNuc=   1.0000000   7.0000000   7.0000000   6.0000000   8.0000000   8.0000000   8.0000000   1.0000000   6.0000000   8.0000000

  Atom        81          82          83
 IAtWgt=          16          16           1
 AtmWgt=  15.9949146  15.9949146   1.0078250
 NucSpn=           0           0           1
 AtZEff=  -0.0000000  -0.0000000  -0.0000000
 NQMom=    0.0000000   0.0000000   0.0000000
 NMagM=    0.0000000   0.0000000   2.7928460
 AtZNuc=   8.0000000   8.0000000   1.0000000
 Leave Link  101 at Sat Mar 16 16:05:02 2024, MaxMem=  1744830464 cpu:               2.4 elap:               0.4
 (Enter /packages/apps/gaussian/g16/g16/l103.exe)

 GradGradGradGradGradGradGradGradGradGradGradGradGradGradGradGradGradGrad
 Berny optimization.
 Initialization pass.
                           ----------------------------
                           !    Initial Parameters    !
                           ! (Angstroms and Degrees)  !
 --------------------------                            --------------------------
 ! Name  Definition              Value          Derivative Info.                !
 --------------------------------------------------------------------------------
 ! R1    R(1,2)                  1.524          estimate D2E/DX2                !
 ! R2    R(1,3)                  1.09           estimate D2E/DX2                !
 ! R3    R(1,4)                  1.0902         estimate D2E/DX2                !
 ! R4    R(1,5)                  1.0918         estimate D2E/DX2                !
 ! R5    R(2,6)                  1.5365         estimate D2E/DX2                !
 ! R6    R(2,7)                  1.0937         estimate D2E/DX2                !
 ! R7    R(2,8)                  1.0926         estimate D2E/DX2                !
 ! R8    R(6,9)                  1.5414         estimate D2E/DX2                !
 ! R9    R(6,10)                 1.0951         estimate D2E/DX2                !
 ! R10   R(6,32)                 1.5163         estimate D2E/DX2                !
 ! R11   R(9,11)                 1.0939         estimate D2E/DX2                !
 ! R12   R(9,12)                 1.0932         estimate D2E/DX2                !
 ! R13   R(9,13)                 1.5408         estimate D2E/DX2                !
 ! R14   R(13,14)                1.5385         estimate D2E/DX2                !
 ! R15   R(13,15)                1.0952         estimate D2E/DX2                !
 ! R16   R(13,22)                1.5157         estimate D2E/DX2                !
 ! R17   R(14,16)                1.0938         estimate D2E/DX2                !
 ! R18   R(14,17)                1.0928         estimate D2E/DX2                !
 ! R19   R(14,18)                1.5238         estimate D2E/DX2                !
 ! R20   R(18,19)                1.09           estimate D2E/DX2                !
 ! R21   R(18,20)                1.092          estimate D2E/DX2                !
 ! R22   R(18,21)                1.0902         estimate D2E/DX2                !
 ! R23   R(22,23)                1.3902         estimate D2E/DX2                !
 ! R24   R(22,24)                1.3921         estimate D2E/DX2                !
 ! R25   R(23,25)                1.388          estimate D2E/DX2                !
 ! R26   R(23,26)                1.0832         estimate D2E/DX2                !
 ! R27   R(24,27)                1.3816         estimate D2E/DX2                !
 ! R28   R(24,28)                1.0823         estimate D2E/DX2                !
 ! R29   R(25,29)                1.3899         estimate D2E/DX2                !
 ! R30   R(25,30)                1.0831         estimate D2E/DX2                !
 ! R31   R(27,29)                1.3938         estimate D2E/DX2                !
 ! R32   R(27,31)                1.0834         estimate D2E/DX2                !
 ! R33   R(29,45)                1.4995         estimate D2E/DX2                !
 ! R34   R(32,33)                1.3888         estimate D2E/DX2                !
 ! R35   R(32,34)                1.3934         estimate D2E/DX2                !
 ! R36   R(33,35)                1.3841         estimate D2E/DX2                !
 ! R37   R(33,36)                1.0826         estimate D2E/DX2                !
 ! R38   R(34,37)                1.3854         estimate D2E/DX2                !
 ! R39   R(34,38)                1.0831         estimate D2E/DX2                !
 ! R40   R(35,39)                1.3912         estimate D2E/DX2                !
 ! R41   R(35,40)                1.0834         estimate D2E/DX2                !
 ! R42   R(37,39)                1.3924         estimate D2E/DX2                !
 ! R43   R(37,41)                1.0831         estimate D2E/DX2                !
 ! R44   R(39,42)                1.4994         estimate D2E/DX2                !
 ! R45   R(42,43)                1.0882         estimate D2E/DX2                !
 ! R46   R(42,44)                1.0858         estimate D2E/DX2                !
 ! R47   R(42,72)                1.5208         estimate D2E/DX2                !
 ! R48   R(44,75)                2.0781         estimate D2E/DX2                !
 ! R49   R(45,46)                1.0883         estimate D2E/DX2                !
 ! R50   R(45,47)                1.0858         estimate D2E/DX2                !
 ! R51   R(45,73)                1.5208         estimate D2E/DX2                !
 ! R52   R(47,80)                2.078          estimate D2E/DX2                !
 ! R53   R(48,49)                1.0881         estimate D2E/DX2                !
 ! R54   R(48,50)                1.0885         estimate D2E/DX2                !
 ! R55   R(48,51)                1.0875         estimate D2E/DX2                !
 ! R56   R(48,72)                1.4953         estimate D2E/DX2                !
 ! R57   R(50,81)                2.1863         estimate D2E/DX2                !
 ! R58   R(52,53)                1.0867         estimate D2E/DX2                !
 ! R59   R(52,54)                1.0889         estimate D2E/DX2                !
 ! R60   R(52,55)                1.0878         estimate D2E/DX2                !
 ! R61   R(52,72)                1.4854         estimate D2E/DX2                !
 ! R62   R(56,57)                1.0901         estimate D2E/DX2                !
 ! R63   R(56,58)                1.086          estimate D2E/DX2                !
 ! R64   R(56,59)                1.0877         estimate D2E/DX2                !
 ! R65   R(56,72)                1.4879         estimate D2E/DX2                !
 ! R66   R(60,61)                1.0881         estimate D2E/DX2                !
 ! R67   R(60,62)                1.0885         estimate D2E/DX2                !
 ! R68   R(60,63)                1.0875         estimate D2E/DX2                !
 ! R69   R(60,73)                1.4954         estimate D2E/DX2                !
 ! R70   R(62,76)                2.1794         estimate D2E/DX2                !
 ! R71   R(64,65)                1.09           estimate D2E/DX2                !
 ! R72   R(64,66)                1.086          estimate D2E/DX2                !
 ! R73   R(64,67)                1.0877         estimate D2E/DX2                !
 ! R74   R(64,73)                1.4879         estimate D2E/DX2                !
 ! R75   R(68,69)                1.0868         estimate D2E/DX2                !
 ! R76   R(68,70)                1.0889         estimate D2E/DX2                !
 ! R77   R(68,71)                1.0878         estimate D2E/DX2                !
 ! R78   R(68,73)                1.4854         estimate D2E/DX2                !
 ! R79   R(74,75)                1.2422         estimate D2E/DX2                !
 ! R80   R(74,76)                1.2462         estimate D2E/DX2                !
 ! R81   R(74,77)                1.3886         estimate D2E/DX2                !
 ! R82   R(77,78)                0.9596         estimate D2E/DX2                !
 ! R83   R(79,80)                1.2423         estimate D2E/DX2                !
 ! R84   R(79,81)                1.2462         estimate D2E/DX2                !
 ! R85   R(79,82)                1.3884         estimate D2E/DX2                !
 ! R86   R(82,83)                0.9596         estimate D2E/DX2                !
 ! A1    A(2,1,3)              111.044          estimate D2E/DX2                !
 ! A2    A(2,1,4)              111.2894         estimate D2E/DX2                !
 ! A3    A(2,1,5)              110.8587         estimate D2E/DX2                !
 ! A4    A(3,1,4)              108.0172         estimate D2E/DX2                !
 ! A5    A(3,1,5)              107.8598         estimate D2E/DX2                !
 ! A6    A(4,1,5)              107.6195         estimate D2E/DX2                !
 ! A7    A(1,2,6)              113.6068         estimate D2E/DX2                !
 ! A8    A(1,2,7)              109.779          estimate D2E/DX2                !
 ! A9    A(1,2,8)              109.4614         estimate D2E/DX2                !
 ! A10   A(6,2,7)              109.3631         estimate D2E/DX2                !
 ! A11   A(6,2,8)              108.2696         estimate D2E/DX2                !
 ! A12   A(7,2,8)              106.0767         estimate D2E/DX2                !
 ! A13   A(2,6,9)              110.1675         estimate D2E/DX2                !
 ! A14   A(2,6,10)             107.1716         estimate D2E/DX2                !
 ! A15   A(2,6,32)             111.9398         estimate D2E/DX2                !
 ! A16   A(9,6,10)             107.4547         estimate D2E/DX2                !
 ! A17   A(9,6,32)             112.6671         estimate D2E/DX2                !
 ! A18   A(10,6,32)            107.1383         estimate D2E/DX2                !
 ! A19   A(6,9,11)             109.2006         estimate D2E/DX2                !
 ! A20   A(6,9,12)             107.3877         estimate D2E/DX2                !
 ! A21   A(6,9,13)             117.3188         estimate D2E/DX2                !
 ! A22   A(11,9,12)            105.7084         estimate D2E/DX2                !
 ! A23   A(11,9,13)            109.7744         estimate D2E/DX2                !
 ! A24   A(12,9,13)            106.7875         estimate D2E/DX2                !
 ! A25   A(9,13,14)            109.688          estimate D2E/DX2                !
 ! A26   A(9,13,15)            107.288          estimate D2E/DX2                !
 ! A27   A(9,13,22)            113.9361         estimate D2E/DX2                !
 ! A28   A(14,13,15)           107.3723         estimate D2E/DX2                !
 ! A29   A(14,13,22)           110.9876         estimate D2E/DX2                !
 ! A30   A(15,13,22)           107.2662         estimate D2E/DX2                !
 ! A31   A(13,14,16)           108.8205         estimate D2E/DX2                !
 ! A32   A(13,14,17)           108.4186         estimate D2E/DX2                !
 ! A33   A(13,14,18)           113.8444         estimate D2E/DX2                !
 ! A34   A(16,14,17)           106.3489         estimate D2E/DX2                !
 ! A35   A(16,14,18)           109.6735         estimate D2E/DX2                !
 ! A36   A(17,14,18)           109.4578         estimate D2E/DX2                !
 ! A37   A(14,18,19)           110.9569         estimate D2E/DX2                !
 ! A38   A(14,18,20)           110.9349         estimate D2E/DX2                !
 ! A39   A(14,18,21)           111.3189         estimate D2E/DX2                !
 ! A40   A(19,18,20)           107.823          estimate D2E/DX2                !
 ! A41   A(19,18,21)           107.9962         estimate D2E/DX2                !
 ! A42   A(20,18,21)           107.6581         estimate D2E/DX2                !
 ! A43   A(13,22,23)           121.2839         estimate D2E/DX2                !
 ! A44   A(13,22,24)           120.6642         estimate D2E/DX2                !
 ! A45   A(23,22,24)           118.0292         estimate D2E/DX2                !
 ! A46   A(22,23,25)           121.0732         estimate D2E/DX2                !
 ! A47   A(22,23,26)           119.394          estimate D2E/DX2                !
 ! A48   A(25,23,26)           119.4267         estimate D2E/DX2                !
 ! A49   A(22,24,27)           121.1474         estimate D2E/DX2                !
 ! A50   A(22,24,28)           119.8619         estimate D2E/DX2                !
 ! A51   A(27,24,28)           118.8529         estimate D2E/DX2                !
 ! A52   A(23,25,29)           120.4208         estimate D2E/DX2                !
 ! A53   A(23,25,30)           119.7973         estimate D2E/DX2                !
 ! A54   A(29,25,30)           119.6257         estimate D2E/DX2                !
 ! A55   A(24,27,29)           120.506          estimate D2E/DX2                !
 ! A56   A(24,27,31)           120.2862         estimate D2E/DX2                !
 ! A57   A(29,27,31)           119.0627         estimate D2E/DX2                !
 ! A58   A(25,29,27)           118.666          estimate D2E/DX2                !
 ! A59   A(25,29,45)           121.7429         estimate D2E/DX2                !
 ! A60   A(27,29,45)           119.1108         estimate D2E/DX2                !
 ! A61   A(6,32,33)            120.3393         estimate D2E/DX2                !
 ! A62   A(6,32,34)            121.5265         estimate D2E/DX2                !
 ! A63   A(33,32,34)           118.0332         estimate D2E/DX2                !
 ! A64   A(32,33,35)           121.2979         estimate D2E/DX2                !
 ! A65   A(32,33,36)           119.3154         estimate D2E/DX2                !
 ! A66   A(35,33,36)           119.2452         estimate D2E/DX2                !
 ! A67   A(32,34,37)           120.9293         estimate D2E/DX2                !
 ! A68   A(32,34,38)           119.8917         estimate D2E/DX2                !
 ! A69   A(37,34,38)           119.0689         estimate D2E/DX2                !
 ! A70   A(33,35,39)           120.3809         estimate D2E/DX2                !
 ! A71   A(33,35,40)           120.3249         estimate D2E/DX2                !
 ! A72   A(39,35,40)           119.148          estimate D2E/DX2                !
 ! A73   A(34,37,39)           120.5472         estimate D2E/DX2                !
 ! A74   A(34,37,41)           119.7694         estimate D2E/DX2                !
 ! A75   A(39,37,41)           119.5367         estimate D2E/DX2                !
 ! A76   A(35,39,37)           118.6674         estimate D2E/DX2                !
 ! A77   A(35,39,42)           119.166          estimate D2E/DX2                !
 ! A78   A(37,39,42)           121.6833         estimate D2E/DX2                !
 ! A79   A(39,42,43)           111.4785         estimate D2E/DX2                !
 ! A80   A(39,42,44)           108.9382         estimate D2E/DX2                !
 ! A81   A(39,42,72)           116.0989         estimate D2E/DX2                !
 ! A82   A(43,42,44)           110.5101         estimate D2E/DX2                !
 ! A83   A(43,42,72)           105.6161         estimate D2E/DX2                !
 ! A84   A(44,42,72)           103.8965         estimate D2E/DX2                !
 ! A85   A(42,44,75)           150.1283         estimate D2E/DX2                !
 ! A86   A(29,45,46)           111.5127         estimate D2E/DX2                !
 ! A87   A(29,45,47)           108.9321         estimate D2E/DX2                !
 ! A88   A(29,45,73)           116.0638         estimate D2E/DX2                !
 ! A89   A(46,45,47)           110.4911         estimate D2E/DX2                !
 ! A90   A(46,45,73)           105.6335         estimate D2E/DX2                !
 ! A91   A(47,45,73)           103.9026         estimate D2E/DX2                !
 ! A92   A(45,47,80)           150.1291         estimate D2E/DX2                !
 ! A93   A(49,48,50)           110.6216         estimate D2E/DX2                !
 ! A94   A(49,48,51)           109.9129         estimate D2E/DX2                !
 ! A95   A(49,48,72)           108.1574         estimate D2E/DX2                !
 ! A96   A(50,48,51)           112.0438         estimate D2E/DX2                !
 ! A97   A(50,48,72)           107.7915         estimate D2E/DX2                !
 ! A98   A(51,48,72)           108.1818         estimate D2E/DX2                !
 ! A99   A(48,50,81)           150.4385         estimate D2E/DX2                !
 ! A100  A(53,52,54)           110.781          estimate D2E/DX2                !
 ! A101  A(53,52,55)           109.9211         estimate D2E/DX2                !
 ! A102  A(53,52,72)           108.7087         estimate D2E/DX2                !
 ! A103  A(54,52,55)           110.8134         estimate D2E/DX2                !
 ! A104  A(54,52,72)           107.7781         estimate D2E/DX2                !
 ! A105  A(55,52,72)           108.7658         estimate D2E/DX2                !
 ! A106  A(57,56,58)           110.6732         estimate D2E/DX2                !
 ! A107  A(57,56,59)           110.8596         estimate D2E/DX2                !
 ! A108  A(57,56,72)           107.7564         estimate D2E/DX2                !
 ! A109  A(58,56,59)           110.1793         estimate D2E/DX2                !
 ! A110  A(58,56,72)           109.0312         estimate D2E/DX2                !
 ! A111  A(59,56,72)           108.2584         estimate D2E/DX2                !
 ! A112  A(61,60,62)           110.6176         estimate D2E/DX2                !
 ! A113  A(61,60,63)           109.9214         estimate D2E/DX2                !
 ! A114  A(61,60,73)           108.1458         estimate D2E/DX2                !
 ! A115  A(62,60,63)           112.0778         estimate D2E/DX2                !
 ! A116  A(62,60,73)           107.7971         estimate D2E/DX2                !
 ! A117  A(63,60,73)           108.1468         estimate D2E/DX2                !
 ! A118  A(60,62,76)           150.5871         estimate D2E/DX2                !
 ! A119  A(65,64,66)           110.7106         estimate D2E/DX2                !
 ! A120  A(65,64,67)           110.8349         estimate D2E/DX2                !
 ! A121  A(65,64,73)           107.7582         estimate D2E/DX2                !
 ! A122  A(66,64,67)           110.1595         estimate D2E/DX2                !
 ! A123  A(66,64,73)           109.0493         estimate D2E/DX2                !
 ! A124  A(67,64,73)           108.2457         estimate D2E/DX2                !
 ! A125  A(69,68,70)           110.7904         estimate D2E/DX2                !
 ! A126  A(69,68,71)           109.9276         estimate D2E/DX2                !
 ! A127  A(69,68,73)           108.7059         estimate D2E/DX2                !
 ! A128  A(70,68,71)           110.8108         estimate D2E/DX2                !
 ! A129  A(70,68,73)           107.778          estimate D2E/DX2                !
 ! A130  A(71,68,73)           108.7548         estimate D2E/DX2                !
 ! A131  A(42,72,48)           107.0874         estimate D2E/DX2                !
 ! A132  A(42,72,52)           109.7112         estimate D2E/DX2                !
 ! A133  A(42,72,56)           110.8895         estimate D2E/DX2                !
 ! A134  A(48,72,52)           109.2143         estimate D2E/DX2                !
 ! A135  A(48,72,56)           108.6741         estimate D2E/DX2                !
 ! A136  A(52,72,56)           111.1577         estimate D2E/DX2                !
 ! A137  A(45,73,60)           107.1086         estimate D2E/DX2                !
 ! A138  A(45,73,64)           110.9205         estimate D2E/DX2                !
 ! A139  A(45,73,68)           109.7015         estimate D2E/DX2                !
 ! A140  A(60,73,64)           108.6364         estimate D2E/DX2                !
 ! A141  A(60,73,68)           109.2284         estimate D2E/DX2                !
 ! A142  A(64,73,68)           111.1399         estimate D2E/DX2                !
 ! A143  A(75,74,76)           129.3764         estimate D2E/DX2                !
 ! A144  A(75,74,77)           114.3703         estimate D2E/DX2                !
 ! A145  A(76,74,77)           116.225          estimate D2E/DX2                !
 ! A146  A(44,75,74)           119.436          estimate D2E/DX2                !
 ! A147  A(62,76,74)           110.7884         estimate D2E/DX2                !
 ! A148  A(74,77,78)           105.1726         estimate D2E/DX2                !
 ! A149  A(80,79,81)           129.3691         estimate D2E/DX2                !
 ! A150  A(80,79,82)           114.3744         estimate D2E/DX2                !
 ! A151  A(81,79,82)           116.2287         estimate D2E/DX2                !
 ! A152  A(47,80,79)           119.945          estimate D2E/DX2                !
 ! A153  A(50,81,79)           111.1654         estimate D2E/DX2                !
 ! A154  A(79,82,83)           105.1676         estimate D2E/DX2                !
 ! D1    D(3,1,2,6)            177.4467         estimate D2E/DX2                !
 ! D2    D(3,1,2,7)            -59.7553         estimate D2E/DX2                !
 ! D3    D(3,1,2,8)             56.2968         estimate D2E/DX2                !
 ! D4    D(4,1,2,6)            -62.1819         estimate D2E/DX2                !
 ! D5    D(4,1,2,7)             60.616          estimate D2E/DX2                !
 ! D6    D(4,1,2,8)            176.6681         estimate D2E/DX2                !
 ! D7    D(5,1,2,6)             57.5621         estimate D2E/DX2                !
 ! D8    D(5,1,2,7)           -179.64           estimate D2E/DX2                !
 ! D9    D(5,1,2,8)            -63.5878         estimate D2E/DX2                !
 ! D10   D(1,2,6,9)           -176.5262         estimate D2E/DX2                !
 ! D11   D(1,2,6,10)           -59.9142         estimate D2E/DX2                !
 ! D12   D(1,2,6,32)            57.2781         estimate D2E/DX2                !
 ! D13   D(7,2,6,9)             60.4475         estimate D2E/DX2                !
 ! D14   D(7,2,6,10)           177.0594         estimate D2E/DX2                !
 ! D15   D(7,2,6,32)           -65.7483         estimate D2E/DX2                !
 ! D16   D(8,2,6,9)            -54.7112         estimate D2E/DX2                !
 ! D17   D(8,2,6,10)            61.9007         estimate D2E/DX2                !
 ! D18   D(8,2,6,32)           179.093          estimate D2E/DX2                !
 ! D19   D(2,6,9,11)           -72.6666         estimate D2E/DX2                !
 ! D20   D(2,6,9,12)            41.5049         estimate D2E/DX2                !
 ! D21   D(2,6,9,13)           161.664          estimate D2E/DX2                !
 ! D22   D(10,6,9,11)          170.8983         estimate D2E/DX2                !
 ! D23   D(10,6,9,12)          -74.9302         estimate D2E/DX2                !
 ! D24   D(10,6,9,13)           45.2289         estimate D2E/DX2                !
 ! D25   D(32,6,9,11)           53.1184         estimate D2E/DX2                !
 ! D26   D(32,6,9,12)          167.2899         estimate D2E/DX2                !
 ! D27   D(32,6,9,13)          -72.551          estimate D2E/DX2                !
 ! D28   D(2,6,32,33)         -125.0465         estimate D2E/DX2                !
 ! D29   D(2,6,32,34)           58.6797         estimate D2E/DX2                !
 ! D30   D(9,6,32,33)          110.132          estimate D2E/DX2                !
 ! D31   D(9,6,32,34)          -66.1418         estimate D2E/DX2                !
 ! D32   D(10,6,32,33)          -7.8342         estimate D2E/DX2                !
 ! D33   D(10,6,32,34)         175.892          estimate D2E/DX2                !
 ! D34   D(6,9,13,14)         -170.2993         estimate D2E/DX2                !
 ! D35   D(6,9,13,15)          -53.9728         estimate D2E/DX2                !
 ! D36   D(6,9,13,22)           64.599          estimate D2E/DX2                !
 ! D37   D(11,9,13,14)          64.3156         estimate D2E/DX2                !
 ! D38   D(11,9,13,15)        -179.3578         estimate D2E/DX2                !
 ! D39   D(11,9,13,22)         -60.7861         estimate D2E/DX2                !
 ! D40   D(12,9,13,14)         -49.8247         estimate D2E/DX2                !
 ! D41   D(12,9,13,15)          66.5018         estimate D2E/DX2                !
 ! D42   D(12,9,13,22)        -174.9264         estimate D2E/DX2                !
 ! D43   D(9,13,14,16)         -62.7744         estimate D2E/DX2                !
 ! D44   D(9,13,14,17)          52.4993         estimate D2E/DX2                !
 ! D45   D(9,13,14,18)         174.5756         estimate D2E/DX2                !
 ! D46   D(15,13,14,16)       -179.0478         estimate D2E/DX2                !
 ! D47   D(15,13,14,17)        -63.7741         estimate D2E/DX2                !
 ! D48   D(15,13,14,18)         58.3023         estimate D2E/DX2                !
 ! D49   D(22,13,14,16)         64.0089         estimate D2E/DX2                !
 ! D50   D(22,13,14,17)        179.2826         estimate D2E/DX2                !
 ! D51   D(22,13,14,18)        -58.6411         estimate D2E/DX2                !
 ! D52   D(9,13,22,23)        -125.4462         estimate D2E/DX2                !
 ! D53   D(9,13,22,24)          52.7871         estimate D2E/DX2                !
 ! D54   D(14,13,22,23)        110.1463         estimate D2E/DX2                !
 ! D55   D(14,13,22,24)        -71.6204         estimate D2E/DX2                !
 ! D56   D(15,13,22,23)         -6.862          estimate D2E/DX2                !
 ! D57   D(15,13,22,24)        171.3713         estimate D2E/DX2                !
 ! D58   D(13,14,18,19)       -177.6138         estimate D2E/DX2                !
 ! D59   D(13,14,18,20)        -57.7826         estimate D2E/DX2                !
 ! D60   D(13,14,18,21)         62.0806         estimate D2E/DX2                !
 ! D61   D(16,14,18,19)         60.2053         estimate D2E/DX2                !
 ! D62   D(16,14,18,20)       -179.9636         estimate D2E/DX2                !
 ! D63   D(16,14,18,21)        -60.1003         estimate D2E/DX2                !
 ! D64   D(17,14,18,19)        -56.1129         estimate D2E/DX2                !
 ! D65   D(17,14,18,20)         63.7183         estimate D2E/DX2                !
 ! D66   D(17,14,18,21)       -176.4185         estimate D2E/DX2                !
 ! D67   D(13,22,23,25)        174.4131         estimate D2E/DX2                !
 ! D68   D(13,22,23,26)         -1.8209         estimate D2E/DX2                !
 ! D69   D(24,22,23,25)         -3.8654         estimate D2E/DX2                !
 ! D70   D(24,22,23,26)        179.9006         estimate D2E/DX2                !
 ! D71   D(13,22,24,27)       -174.0203         estimate D2E/DX2                !
 ! D72   D(13,22,24,28)          1.6631         estimate D2E/DX2                !
 ! D73   D(23,22,24,27)          4.2693         estimate D2E/DX2                !
 ! D74   D(23,22,24,28)        179.9527         estimate D2E/DX2                !
 ! D75   D(22,23,25,29)          0.7086         estimate D2E/DX2                !
 ! D76   D(22,23,25,30)       -174.7319         estimate D2E/DX2                !
 ! D77   D(26,23,25,29)        176.9414         estimate D2E/DX2                !
 ! D78   D(26,23,25,30)          1.5008         estimate D2E/DX2                !
 ! D79   D(22,24,27,29)         -1.514          estimate D2E/DX2                !
 ! D80   D(22,24,27,31)        174.0669         estimate D2E/DX2                !
 ! D81   D(28,24,27,29)       -177.24           estimate D2E/DX2                !
 ! D82   D(28,24,27,31)         -1.6591         estimate D2E/DX2                !
 ! D83   D(23,25,29,27)          2.1221         estimate D2E/DX2                !
 ! D84   D(23,25,29,45)       -169.8539         estimate D2E/DX2                !
 ! D85   D(30,25,29,27)        177.5705         estimate D2E/DX2                !
 ! D86   D(30,25,29,45)          5.5945         estimate D2E/DX2                !
 ! D87   D(24,27,29,25)         -1.7274         estimate D2E/DX2                !
 ! D88   D(24,27,29,45)        170.4636         estimate D2E/DX2                !
 ! D89   D(31,27,29,25)       -177.3619         estimate D2E/DX2                !
 ! D90   D(31,27,29,45)         -5.1709         estimate D2E/DX2                !
 ! D91   D(25,29,45,46)         26.83           estimate D2E/DX2                !
 ! D92   D(25,29,45,47)        149.038          estimate D2E/DX2                !
 ! D93   D(25,29,45,73)        -94.1839         estimate D2E/DX2                !
 ! D94   D(27,29,45,46)       -145.1113         estimate D2E/DX2                !
 ! D95   D(27,29,45,47)        -22.9033         estimate D2E/DX2                !
 ! D96   D(27,29,45,73)         93.8748         estimate D2E/DX2                !
 ! D97   D(6,32,33,35)        -172.3553         estimate D2E/DX2                !
 ! D98   D(6,32,33,36)           3.2879         estimate D2E/DX2                !
 ! D99   D(34,32,33,35)          4.0465         estimate D2E/DX2                !
 ! D100  D(34,32,33,36)        179.6896         estimate D2E/DX2                !
 ! D101  D(6,32,34,37)         172.6038         estimate D2E/DX2                !
 ! D102  D(6,32,34,38)          -3.5462         estimate D2E/DX2                !
 ! D103  D(33,32,34,37)         -3.753          estimate D2E/DX2                !
 ! D104  D(33,32,34,38)       -179.903          estimate D2E/DX2                !
 ! D105  D(32,33,35,39)         -1.3493         estimate D2E/DX2                !
 ! D106  D(32,33,35,40)        174.2189         estimate D2E/DX2                !
 ! D107  D(36,33,35,39)       -176.9954         estimate D2E/DX2                !
 ! D108  D(36,33,35,40)         -1.4273         estimate D2E/DX2                !
 ! D109  D(32,34,37,39)          0.7751         estimate D2E/DX2                !
 ! D110  D(32,34,37,41)       -174.8017         estimate D2E/DX2                !
 ! D111  D(38,34,37,39)        176.9563         estimate D2E/DX2                !
 ! D112  D(38,34,37,41)          1.3795         estimate D2E/DX2                !
 ! D113  D(33,35,39,37)         -1.7127         estimate D2E/DX2                !
 ! D114  D(33,35,39,42)        170.4486         estimate D2E/DX2                !
 ! D115  D(40,35,39,37)       -177.3327         estimate D2E/DX2                !
 ! D116  D(40,35,39,42)         -5.1713         estimate D2E/DX2                !
 ! D117  D(34,37,39,35)          1.9912         estimate D2E/DX2                !
 ! D118  D(34,37,39,42)       -169.9638         estimate D2E/DX2                !
 ! D119  D(41,37,39,35)        177.5783         estimate D2E/DX2                !
 ! D120  D(41,37,39,42)          5.6233         estimate D2E/DX2                !
 ! D121  D(35,39,42,43)       -144.7397         estimate D2E/DX2                !
 ! D122  D(35,39,42,44)        -22.5259         estimate D2E/DX2                !
 ! D123  D(35,39,42,72)         94.271          estimate D2E/DX2                !
 ! D124  D(37,39,42,43)         27.1763         estimate D2E/DX2                !
 ! D125  D(37,39,42,44)        149.3901         estimate D2E/DX2                !
 ! D126  D(37,39,42,72)        -93.813          estimate D2E/DX2                !
 ! D127  D(39,42,44,75)         71.8036         estimate D2E/DX2                !
 ! D128  D(43,42,44,75)       -165.3994         estimate D2E/DX2                !
 ! D129  D(72,42,44,75)        -52.5303         estimate D2E/DX2                !
 ! D130  D(39,42,72,48)       -171.1269         estimate D2E/DX2                !
 ! D131  D(39,42,72,52)         70.4575         estimate D2E/DX2                !
 ! D132  D(39,42,72,56)        -52.7116         estimate D2E/DX2                !
 ! D133  D(43,42,72,48)         64.7982         estimate D2E/DX2                !
 ! D134  D(43,42,72,52)        -53.6174         estimate D2E/DX2                !
 ! D135  D(43,42,72,56)       -176.7865         estimate D2E/DX2                !
 ! D136  D(44,42,72,48)        -51.5563         estimate D2E/DX2                !
 ! D137  D(44,42,72,52)       -169.972          estimate D2E/DX2                !
 ! D138  D(44,42,72,56)         66.8589         estimate D2E/DX2                !
 ! D139  D(42,44,75,74)        142.6411         estimate D2E/DX2                !
 ! D140  D(29,45,47,80)         72.5196         estimate D2E/DX2                !
 ! D141  D(46,45,47,80)       -164.657          estimate D2E/DX2                !
 ! D142  D(73,45,47,80)        -51.7729         estimate D2E/DX2                !
 ! D143  D(29,45,73,60)       -170.9892         estimate D2E/DX2                !
 ! D144  D(29,45,73,64)        -52.5894         estimate D2E/DX2                !
 ! D145  D(29,45,73,68)         70.5715         estimate D2E/DX2                !
 ! D146  D(46,45,73,60)         64.9014         estimate D2E/DX2                !
 ! D147  D(46,45,73,64)       -176.6988         estimate D2E/DX2                !
 ! D148  D(46,45,73,68)        -53.5379         estimate D2E/DX2                !
 ! D149  D(47,45,73,60)        -51.4417         estimate D2E/DX2                !
 ! D150  D(47,45,73,64)         66.958          estimate D2E/DX2                !
 ! D151  D(47,45,73,68)       -169.8811         estimate D2E/DX2                !
 ! D152  D(45,47,80,79)        141.9208         estimate D2E/DX2                !
 ! D153  D(49,48,50,81)        118.2587         estimate D2E/DX2                !
 ! D154  D(51,48,50,81)       -118.7178         estimate D2E/DX2                !
 ! D155  D(72,48,50,81)          0.1957         estimate D2E/DX2                !
 ! D156  D(49,48,72,42)       -176.8753         estimate D2E/DX2                !
 ! D157  D(49,48,72,52)        -58.1373         estimate D2E/DX2                !
 ! D158  D(49,48,72,56)         63.2795         estimate D2E/DX2                !
 ! D159  D(50,48,72,42)        -57.2378         estimate D2E/DX2                !
 ! D160  D(50,48,72,52)         61.5002         estimate D2E/DX2                !
 ! D161  D(50,48,72,56)       -177.0829         estimate D2E/DX2                !
 ! D162  D(51,48,72,42)         64.1129         estimate D2E/DX2                !
 ! D163  D(51,48,72,52)       -177.1491         estimate D2E/DX2                !
 ! D164  D(51,48,72,56)        -55.7322         estimate D2E/DX2                !
 ! D165  D(48,50,81,79)        102.697          estimate D2E/DX2                !
 ! D166  D(53,52,72,42)        -61.677          estimate D2E/DX2                !
 ! D167  D(53,52,72,48)       -178.7674         estimate D2E/DX2                !
 ! D168  D(53,52,72,56)         61.334          estimate D2E/DX2                !
 ! D169  D(54,52,72,42)         58.4528         estimate D2E/DX2                !
 ! D170  D(54,52,72,48)        -58.6376         estimate D2E/DX2                !
 ! D171  D(54,52,72,56)       -178.5363         estimate D2E/DX2                !
 ! D172  D(55,52,72,42)        178.6539         estimate D2E/DX2                !
 ! D173  D(55,52,72,48)         61.5635         estimate D2E/DX2                !
 ! D174  D(55,52,72,56)        -58.3352         estimate D2E/DX2                !
 ! D175  D(57,56,72,42)        -55.3361         estimate D2E/DX2                !
 ! D176  D(57,56,72,48)         62.1136         estimate D2E/DX2                !
 ! D177  D(57,56,72,52)       -177.6673         estimate D2E/DX2                !
 ! D178  D(58,56,72,42)         64.8353         estimate D2E/DX2                !
 ! D179  D(58,56,72,48)       -177.715          estimate D2E/DX2                !
 ! D180  D(58,56,72,52)        -57.4959         estimate D2E/DX2                !
 ! D181  D(59,56,72,42)       -175.2937         estimate D2E/DX2                !
 ! D182  D(59,56,72,48)        -57.844          estimate D2E/DX2                !
 ! D183  D(59,56,72,52)         62.375          estimate D2E/DX2                !
 ! D184  D(61,60,62,76)        117.6571         estimate D2E/DX2                !
 ! D185  D(63,60,62,76)       -119.2872         estimate D2E/DX2                !
 ! D186  D(73,60,62,76)         -0.393          estimate D2E/DX2                !
 ! D187  D(61,60,73,45)       -176.9328         estimate D2E/DX2                !
 ! D188  D(61,60,73,64)         63.1938         estimate D2E/DX2                !
 ! D189  D(61,60,73,68)        -58.1867         estimate D2E/DX2                !
 ! D190  D(62,60,73,45)        -57.3034         estimate D2E/DX2                !
 ! D191  D(62,60,73,64)       -177.1768         estimate D2E/DX2                !
 ! D192  D(62,60,73,68)         61.4427         estimate D2E/DX2                !
 ! D193  D(63,60,73,45)         64.0712         estimate D2E/DX2                !
 ! D194  D(63,60,73,64)        -55.8022         estimate D2E/DX2                !
 ! D195  D(63,60,73,68)       -177.1827         estimate D2E/DX2                !
 ! D196  D(60,62,76,74)        103.3742         estimate D2E/DX2                !
 ! D197  D(65,64,73,45)        -55.421          estimate D2E/DX2                !
 ! D198  D(65,64,73,60)         62.0496         estimate D2E/DX2                !
 ! D199  D(65,64,73,68)       -177.7491         estimate D2E/DX2                !
 ! D200  D(66,64,73,45)         64.8067         estimate D2E/DX2                !
 ! D201  D(66,64,73,60)       -177.7227         estimate D2E/DX2                !
 ! D202  D(66,64,73,68)        -57.5214         estimate D2E/DX2                !
 ! D203  D(67,64,73,45)       -175.3431         estimate D2E/DX2                !
 ! D204  D(67,64,73,60)        -57.8725         estimate D2E/DX2                !
 ! D205  D(67,64,73,68)         62.3287         estimate D2E/DX2                !
 ! D206  D(69,68,73,45)        -61.6027         estimate D2E/DX2                !
 ! D207  D(69,68,73,60)       -178.7214         estimate D2E/DX2                !
 ! D208  D(69,68,73,64)         61.4288         estimate D2E/DX2                !
 ! D209  D(70,68,73,45)         58.5367         estimate D2E/DX2                !
 ! D210  D(70,68,73,60)        -58.582          estimate D2E/DX2                !
 ! D211  D(70,68,73,64)       -178.4318         estimate D2E/DX2                !
 ! D212  D(71,68,73,45)        178.7283         estimate D2E/DX2                !
 ! D213  D(71,68,73,60)         61.6097         estimate D2E/DX2                !
 ! D214  D(71,68,73,64)        -58.2402         estimate D2E/DX2                !
 ! D215  D(76,74,75,44)         83.3126         estimate D2E/DX2                !
 ! D216  D(77,74,75,44)        -94.6558         estimate D2E/DX2                !
 ! D217  D(75,74,76,62)        -85.6194         estimate D2E/DX2                !
 ! D218  D(77,74,76,62)         92.3177         estimate D2E/DX2                !
 ! D219  D(75,74,77,78)       -178.9078         estimate D2E/DX2                !
 ! D220  D(76,74,77,78)          2.8427         estimate D2E/DX2                !
 ! D221  D(81,79,80,47)         82.6871         estimate D2E/DX2                !
 ! D222  D(82,79,80,47)        -95.2997         estimate D2E/DX2                !
 ! D223  D(80,79,81,50)        -85.43           estimate D2E/DX2                !
 ! D224  D(82,79,81,50)         92.5258         estimate D2E/DX2                !
 ! D225  D(80,79,82,83)       -178.9355         estimate D2E/DX2                !
 ! D226  D(81,79,82,83)          2.7994         estimate D2E/DX2                !
 --------------------------------------------------------------------------------
 Trust Radius=3.00D-01 FncErr=1.00D-07 GrdErr=1.00D-06 EigMax=2.50D+02 EigMin=1.00D-04
 Number of steps in this run=    476 maximum allowed number of steps=    498.
 GradGradGradGradGradGradGradGradGradGradGradGradGradGradGradGradGradGrad

 Leave Link  103 at Sat Mar 16 16:05:03 2024, MaxMem=  1744830464 cpu:               1.4 elap:               0.2
 (Enter /packages/apps/gaussian/g16/g16/l202.exe)
 Stoichiometry    C29H46N2O6
 Framework group  C1[X(C29H46N2O6)]
 Deg. of freedom   243
 Full point group                 C1      NOp   1
 Largest Abelian subgroup         C1      NOp   1
 Largest concise Abelian subgroup C1      NOp   1
                         Standard orientation:                         
 ---------------------------------------------------------------------
 Center     Atomic      Atomic             Coordinates (Angstroms)
 Number     Number       Type             X           Y           Z
 ---------------------------------------------------------------------
      1          6           0        4.898141   -3.777447   -0.644182
      2          6           0        5.210465   -2.504684    0.133669
      3          1           0        5.550301   -4.594603   -0.335822
      4          1           0        3.866073   -4.092845   -0.489262
      5          1           0        5.039105   -3.622644   -1.715751
      6          6           0        4.365581   -1.296335   -0.298725
      7          1           0        5.069931   -2.681093    1.203842
      8          1           0        6.264887   -2.248975    0.005078
      9          6           0        4.804342   -0.037109    0.474471
     10          1           0        4.573231   -1.119551   -1.359297
     11          1           0        4.463287   -0.114329    1.510976
     12          1           0        5.896530   -0.046214    0.520803
     13          6           0        4.395030    1.329123   -0.108573
     14          6           0        5.117852    2.454627    0.651577
     15          1           0        4.744759    1.358210   -1.146067
     16          1           0        4.797857    2.436175    1.697380
     17          1           0        6.188803    2.237367    0.653712
     18          6           0        4.882578    3.842251    0.067512
     19          1           0        5.448015    4.596543    0.614682
     20          1           0        5.194900    3.883589   -0.978010
     21          1           0        3.828144    4.116064    0.108734
     22          6           0        2.897884    1.564204   -0.131750
     23          6           0        2.238874    1.905651   -1.307213
     24          6           0        2.136632    1.407374    1.023137
     25          6           0        0.855281    2.007627   -1.349134
     26          1           0        2.809865    2.034863   -2.218539
     27          6           0        0.758539    1.498912    0.988550
     28          1           0        2.619153    1.141041    1.954585
     29          6           0        0.098082    1.783063   -0.205454
     30          1           0        0.357446    2.190643   -2.293476
     31          1           0        0.174010    1.280300    1.874211
     32          6           0        2.879467   -1.570398   -0.174015
     33          6           0        2.041025   -1.403157   -1.268445
     34          6           0        2.302756   -1.919318    1.045483
     35          6           0        0.665809   -1.494817   -1.141323
     36          1           0        2.466537   -1.127109   -2.224865
     37          6           0        0.927516   -2.018649    1.180299
     38          1           0        2.928355   -2.055849    1.918994
     39          6           0        0.091084   -1.786533    0.091535
     40          1           0        0.022403   -1.270024   -1.983539
     41          1           0        0.494993   -2.208044    2.155106
     42          6           0       -1.395044   -1.667964    0.251343
     43          1           0       -1.661891   -1.312954    1.244778
     44          1           0       -1.778615   -0.994493   -0.509070
     45          6           0       -1.395729    1.663669   -0.259154
     46          1           0       -1.732984    1.308089   -1.230824
     47          1           0       -1.723810    0.990209    0.526895
     48          6           0       -3.639482   -2.562061    0.032049
     49          1           0       -4.230484   -3.471092   -0.059078
     50          1           0       -3.857518   -2.055496    0.970535
     51          1           0       -3.812752   -1.919795   -0.828311
     52          6           0       -1.945967   -3.879452    1.172538
     53          1           0       -0.889851   -4.135202    1.187372
     54          1           0       -2.233932   -3.373606    2.092791
     55          1           0       -2.542463   -4.776502    1.021629
     56          6           0       -1.857242   -3.576671   -1.259762
     57          1           0       -2.019130   -2.833418   -2.040528
     58          1           0       -0.818829   -3.893983   -1.241879
     59          1           0       -2.509606   -4.435428   -1.401265
     60          6           0       -3.618659    2.557972    0.123041
     61          1           0       -4.201094    3.467205    0.257142
     62          1           0       -3.905335    2.051290   -0.796736
     63          1           0       -3.727598    1.916268    0.994239
     64          6           0       -1.747469    3.574559    1.279559
     65          1           0       -1.853111    2.832895    2.071364
     66          1           0       -0.713150    3.892003    1.186203
     67          1           0       -2.387855    4.433677    1.466263
     68          6           0       -2.012887    3.874021   -1.140055
     69          1           0       -0.960514    4.128830   -1.232866
     70          1           0       -2.368415    3.367644   -2.036043
     71          1           0       -2.595999    4.771632   -0.946310
     72          7           0       -2.194155   -2.945238    0.044716
     73          7           0       -2.178046    2.941027    0.003945
     74          6           0       -3.258454    0.065845   -2.764022
     75          8           0       -2.241999   -0.595721   -2.495240
     76          8           0       -3.414890    1.302053   -2.783643
     77          8           0       -4.382874   -0.699457   -3.043518
     78          1           0       -5.074028   -0.065485   -3.246701
     79          6           0       -3.051712   -0.060934    2.887053
     80          8           0       -2.056396    0.596536    2.539933
     81          8           0       -3.211961   -1.296480    2.916586
     82          8           0       -4.146552    0.708812    3.256420
     83          1           0       -4.822612    0.077493    3.511933
 ---------------------------------------------------------------------
 Rotational constants (GHZ):           0.1307191           0.0801611           0.0667734
 Leave Link  202 at Sat Mar 16 16:05:03 2024, MaxMem=  1744830464 cpu:               2.8 elap:               0.3
 (Enter /packages/apps/gaussian/g16/g16/l301.exe)
 Standard basis: 6-311+G(2d,2p) (5D, 7F)
 Ernie: Thresh=  0.10000D-02 Tol=  0.10000D-05 Strict=F.
 There are  1487 symmetry adapted cartesian basis functions of A   symmetry.
 There are  1413 symmetry adapted basis functions of A   symmetry.
  1413 basis functions,  2060 primitive gaussians,  1487 cartesian basis functions
   141 alpha electrons      141 beta electrons
       nuclear repulsion energy      4677.9262126300 Hartrees.
 IExCor= 4639 DFT=T Ex+Corr=wB97XD ExCW=0 ScaHFX=  1.000000
 ScaDFX=  1.000000  1.000000  1.000000  1.000000 ScalE2=  1.000000  1.000000
 IRadAn=      5 IRanWt=     -1 IRanGd=            0 ICorTp=0 IEmpDi=121
 HFx  wShort=  0.000000 wLong=  0.200000 cFull=  0.222036 cShort=  0.000000 cLong=  0.777964
 DFx  wShort=  0.000000 wLong=  0.200000 cFull=  0.000000 cShort=  0.000000 cLong=  1.000000
 NAtoms=   83 NActive=   83 NUniq=   83 SFac= 1.00D+00 NAtFMM=   60 NAOKFM=T Big=T
 Integral buffers will be    131072 words long.
 Raffenetti 2 integral format.
 Two-electron integral symmetry is turned on.
 R6Disp:  Grimme-D2 Dispersion energy=       -0.0996040384 Hartrees.
 Nuclear repulsion after empirical dispersion term =     4677.8266085916 Hartrees.
 Leave Link  301 at Sat Mar 16 16:05:03 2024, MaxMem=  1744830464 cpu:               1.4 elap:               0.3
 (Enter /packages/apps/gaussian/g16/g16/l302.exe)
 NPDir=0 NMtPBC=     1 NCelOv=     1 NCel=       1 NClECP=     1 NCelD=      1
         NCelK=      1 NCelE2=     1 NClLst=     1 CellRange=     0.0.
 One-electron integrals computed using PRISM.
 One-electron integral symmetry used in STVInt
 NBasis=  1413 RedAO= T EigKep=  1.21D-06  NBF=  1413
 NBsUse=  1402 1.00D-06 EigRej=  9.48D-07 NBFU=  1402
 Precomputing XC quadrature grid using
 IXCGrd= 4 IRadAn=           5 IRanWt=          -1 IRanGd=           0 AccXCQ= 0.00D+00.
 Generated NRdTot=       0 NPtTot=           0 NUsed=           0 NTot=          32
 NSgBfM=  1404  1402  1402  1404  1404 MxSgAt=    83 MxSgA2=    83.
 Leave Link  302 at Sat Mar 16 16:05:21 2024, MaxMem=  1744830464 cpu:             260.7 elap:              17.9
 (Enter /packages/apps/gaussian/g16/g16/l303.exe)
 DipDrv:  MaxL=1.
 Leave Link  303 at Sat Mar 16 16:05:23 2024, MaxMem=  1744830464 cpu:               7.9 elap:               1.4
 (Enter /packages/apps/gaussian/g16/g16/l401.exe)
 ExpMin= 4.38D-02 ExpMax= 8.59D+03 ExpMxC= 1.30D+03 IAcc=3 IRadAn=         5 AccDes= 0.00D+00
 Harris functional with IExCor= 4639 and IRadAn=       5 diagonalized for initial guess.
 HarFok:  IExCor= 4639 AccDes= 0.00D+00 IRadAn=         5 IDoV= 1 UseB2=F ITyADJ=14
 ICtDFT=  3500011 ScaDFX=  1.000000  1.000000  1.000000  1.000000
 FoFCou: FMM=F IPFlag=           0 FMFlag=      100000 FMFlg1=        2001
         NFxFlg=           0 DoJE=T BraDBF=F KetDBF=T FulRan=T
         wScrn=  0.000000 ICntrl=       500 IOpCl=  0 I1Cent=   200000004 NGrid=           0
         NMat0=    1 NMatS0=      1 NMatT0=    0 NMatD0=    1 NMtDS0=    0 NMtDT0=    0
 Petite list used in FoFCou.
 Harris En= -1619.66166670779    
 JPrj=0 DoOrth=F DoCkMO=F.
 Leave Link  401 at Sat Mar 16 16:05:31 2024, MaxMem=  1744830464 cpu:             157.1 elap:               8.2
 (Enter /packages/apps/gaussian/g16/g16/l502.exe)
 Integral symmetry usage will be decided dynamically.
 Closed shell SCF:
 Using DIIS extrapolation, IDIIS=  1040.
 NGot=  1744830464 LenX=  1740364817 LenY=  1738152161
 Requested convergence on RMS density matrix=1.00D-08 within 128 cycles.
 Requested convergence on MAX density matrix=1.00D-06.
 Requested convergence on             energy=1.00D-06.
 No special actions if energy rises.
 Fock matrices will be formed incrementally for  20 cycles.

 Cycle   1  Pass 1  IDiag  1:
 FoFJK:  IHMeth= 1 ICntrl=       0 DoSepK=T KAlg= 0 I1Cent=           0 FoldK=F
 IRaf=         1 NMat=       1 IRICut=       1 DoRegI=T DoRafI=F ISym2E= 0 IDoP0=0 IntGTp=1.
 FoFCou: FMM=T IPFlag=           0 FMFlag=      100000 FMFlg1=        2001
         NFxFlg=           0 DoJE=T BraDBF=F KetDBF=F FulRan=T
         wScrn=  0.000000 ICntrl=       500 IOpCl=  0 I1Cent=           0 NGrid=           0
         NMat0=    1 NMatS0=      1 NMatT0=    0 NMatD0=    1 NMtDS0=    0 NMtDT0=    0
 Symmetry not used in FoFCou.
 FMM levels:  10  Number of levels for PrismC:   9
 E= -1693.12669675610    
 DIIS: error= 4.42D-02 at cycle   1 NSaved=   1.
 NSaved= 1 IEnMin= 1 EnMin= -1693.12669675610     IErMin= 1 ErrMin= 4.42D-02
 ErrMax= 4.42D-02  0.00D+00 EMaxC= 1.00D-01 BMatC= 3.68D+00 BMatP= 3.68D+00
 IDIUse=3 WtCom= 5.58D-01 WtEn= 4.42D-01
 Coeff-Com:  0.100D+01
 Coeff-En:   0.100D+01
 Coeff:      0.100D+01
 Gap=     0.408 Goal=   None    Shift=    0.000
 GapD=    0.408 DampG=2.000 DampE=0.500 DampFc=1.0000 IDamp=-1.
 RMSDP=5.55D-03 MaxDP=1.18D+00              OVMax= 1.21D-01

 Cycle   2  Pass 1  IDiag  1:
 RMSU=  2.93D-03    CP:  6.65D-01
 E= -1693.30533218280     Delta-E=       -0.178635426701 Rises=F Damp=F
 DIIS: error= 1.84D-02 at cycle   2 NSaved=   2.
 NSaved= 2 IEnMin= 2 EnMin= -1693.30533218280     IErMin= 2 ErrMin= 1.84D-02
 ErrMax= 1.84D-02  0.00D+00 EMaxC= 1.00D-01 BMatC= 5.78D-01 BMatP= 3.68D+00
 IDIUse=3 WtCom= 8.16D-01 WtEn= 1.84D-01
 Coeff-Com:  0.216D+00 0.784D+00
 Coeff-En:   0.381D+00 0.619D+00
 Coeff:      0.246D+00 0.754D+00
 Gap=     0.381 Goal=   None    Shift=    0.000
 RMSDP=1.51D-03 MaxDP=1.52D-01 DE=-1.79D-01 OVMax= 1.05D-01

 Cycle   3  Pass 1  IDiag  1:
 RMSU=  1.32D-03    CP:  6.43D-01  7.74D-01
 E= -1693.53345722963     Delta-E=       -0.228125046831 Rises=F Damp=F
 DIIS: error= 1.23D-02 at cycle   3 NSaved=   3.
 NSaved= 3 IEnMin= 3 EnMin= -1693.53345722963     IErMin= 3 ErrMin= 1.23D-02
 ErrMax= 1.23D-02  0.00D+00 EMaxC= 1.00D-01 BMatC= 2.31D-01 BMatP= 5.78D-01
 IDIUse=3 WtCom= 8.77D-01 WtEn= 1.23D-01
 Coeff-Com:  0.248D-01 0.389D+00 0.586D+00
 Coeff-En:   0.000D+00 0.314D+00 0.686D+00
 Coeff:      0.218D-01 0.380D+00 0.598D+00
 Gap=     0.334 Goal=   None    Shift=    0.000
 RMSDP=7.06D-04 MaxDP=7.66D-02 DE=-2.28D-01 OVMax= 4.86D-02

 Cycle   4  Pass 1  IDiag  1:
 RMSU=  4.04D-04    CP:  6.52D-01  9.00D-01  6.78D-01
 E= -1693.71304146788     Delta-E=       -0.179584238251 Rises=F Damp=F
 DIIS: error= 9.90D-04 at cycle   4 NSaved=   4.
 NSaved= 4 IEnMin= 4 EnMin= -1693.71304146788     IErMin= 4 ErrMin= 9.90D-04
 ErrMax= 9.90D-04  0.00D+00 EMaxC= 1.00D-01 BMatC= 2.82D-03 BMatP= 2.31D-01
 IDIUse=3 WtCom= 9.90D-01 WtEn= 9.90D-03
 Coeff-Com:  0.451D-02 0.932D-01 0.194D+00 0.709D+00
 Coeff-En:   0.000D+00 0.000D+00 0.000D+00 0.100D+01
 Coeff:      0.446D-02 0.922D-01 0.192D+00 0.711D+00
 Gap=     0.338 Goal=   None    Shift=    0.000
 RMSDP=2.00D-04 MaxDP=3.00D-02 DE=-1.80D-01 OVMax= 6.15D-03

 Cycle   5  Pass 1  IDiag  1:
 RMSU=  1.36D-04    CP:  6.45D-01  8.99D-01  7.11D-01  7.88D-01
 E= -1693.71510106410     Delta-E=       -0.002059596223 Rises=F Damp=F
 DIIS: error= 1.92D-04 at cycle   5 NSaved=   5.
 NSaved= 5 IEnMin= 5 EnMin= -1693.71510106410     IErMin= 5 ErrMin= 1.92D-04
 ErrMax= 1.92D-04  0.00D+00 EMaxC= 1.00D-01 BMatC= 2.88D-04 BMatP= 2.82D-03
 IDIUse=3 WtCom= 9.98D-01 WtEn= 1.92D-03
 Coeff-Com: -0.924D-03-0.120D-01 0.675D-02 0.279D+00 0.727D+00
 Coeff-En:   0.000D+00 0.000D+00 0.000D+00 0.000D+00 0.100D+01
 Coeff:     -0.922D-03-0.120D-01 0.674D-02 0.278D+00 0.728D+00
 Gap=     0.337 Goal=   None    Shift=    0.000
 RMSDP=5.11D-05 MaxDP=4.96D-03 DE=-2.06D-03 OVMax= 3.15D-03

 Cycle   6  Pass 1  IDiag  1:
 RMSU=  3.14D-05    CP:  6.45D-01  9.02D-01  7.20D-01  8.80D-01  9.73D-01
 E= -1693.71531355078     Delta-E=       -0.000212486676 Rises=F Damp=F
 DIIS: error= 8.59D-05 at cycle   6 NSaved=   6.
 NSaved= 6 IEnMin= 6 EnMin= -1693.71531355078     IErMin= 6 ErrMin= 8.59D-05
 ErrMax= 8.59D-05  0.00D+00 EMaxC= 1.00D-01 BMatC= 3.87D-05 BMatP= 2.88D-04
 IDIUse=1 WtCom= 1.00D+00 WtEn= 0.00D+00
 Coeff-Com: -0.723D-03-0.113D-01-0.687D-02 0.105D+00 0.376D+00 0.538D+00
 Coeff:     -0.723D-03-0.113D-01-0.687D-02 0.105D+00 0.376D+00 0.538D+00
 Gap=     0.335 Goal=   None    Shift=    0.000
 RMSDP=1.56D-05 MaxDP=2.58D-03 DE=-2.12D-04 OVMax= 1.10D-03

 Cycle   7  Pass 1  IDiag  1:
 RMSU=  1.03D-05    CP:  6.45D-01  9.03D-01  7.20D-01  8.96D-01  1.03D+00
                    CP:  9.00D-01
 E= -1693.71534706705     Delta-E=       -0.000033516273 Rises=F Damp=F
 DIIS: error= 1.39D-05 at cycle   7 NSaved=   7.
 NSaved= 7 IEnMin= 7 EnMin= -1693.71534706705     IErMin= 7 ErrMin= 1.39D-05
 ErrMax= 1.39D-05  0.00D+00 EMaxC= 1.00D-01 BMatC= 1.05D-06 BMatP= 3.87D-05
 IDIUse=1 WtCom= 1.00D+00 WtEn= 0.00D+00
 Coeff-Com: -0.897D-04-0.186D-02-0.315D-02-0.702D-02 0.426D-02 0.119D+00
 Coeff-Com:  0.889D+00
 Coeff:     -0.897D-04-0.186D-02-0.315D-02-0.702D-02 0.426D-02 0.119D+00
 Coeff:      0.889D+00
 Gap=     0.335 Goal=   None    Shift=    0.000
 RMSDP=7.91D-06 MaxDP=9.73D-04 DE=-3.35D-05 OVMax= 3.29D-04

 Cycle   8  Pass 1  IDiag  1:
 RMSU=  3.08D-06    CP:  6.45D-01  9.04D-01  7.21D-01  9.09D-01  1.06D+00
                    CP:  9.65D-01  1.14D+00
 E= -1693.71534841638     Delta-E=       -0.000001349326 Rises=F Damp=F
 DIIS: error= 7.42D-06 at cycle   8 NSaved=   8.
 NSaved= 8 IEnMin= 8 EnMin= -1693.71534841638     IErMin= 8 ErrMin= 7.42D-06
 ErrMax= 7.42D-06  0.00D+00 EMaxC= 1.00D-01 BMatC= 2.53D-07 BMatP= 1.05D-06
 IDIUse=1 WtCom= 1.00D+00 WtEn= 0.00D+00
 Coeff-Com:  0.989D-05-0.418D-04-0.984D-03-0.115D-01-0.281D-01 0.996D-02
 Coeff-Com:  0.405D+00 0.626D+00
 Coeff:      0.989D-05-0.418D-04-0.984D-03-0.115D-01-0.281D-01 0.996D-02
 Coeff:      0.405D+00 0.626D+00
 Gap=     0.335 Goal=   None    Shift=    0.000
 RMSDP=2.09D-06 MaxDP=2.86D-04 DE=-1.35D-06 OVMax= 9.49D-05

 Cycle   9  Pass 1  IDiag  1:
 RMSU=  1.03D-06    CP:  6.45D-01  9.04D-01  7.22D-01  9.10D-01  1.07D+00
                    CP:  9.84D-01  1.20D+00  1.00D+00
 E= -1693.71534863620     Delta-E=       -0.000000219825 Rises=F Damp=F
 DIIS: error= 3.24D-06 at cycle   9 NSaved=   9.
 NSaved= 9 IEnMin= 9 EnMin= -1693.71534863620     IErMin= 9 ErrMin= 3.24D-06
 ErrMax= 3.24D-06  0.00D+00 EMaxC= 1.00D-01 BMatC= 4.09D-08 BMatP= 2.53D-07
 IDIUse=1 WtCom= 1.00D+00 WtEn= 0.00D+00
 Coeff-Com:  0.191D-04 0.310D-03 0.519D-04-0.491D-02-0.155D-01-0.145D-01
 Coeff-Com:  0.690D-01 0.312D+00 0.654D+00
 Coeff:      0.191D-04 0.310D-03 0.519D-04-0.491D-02-0.155D-01-0.145D-01
 Coeff:      0.690D-01 0.312D+00 0.654D+00
 Gap=     0.335 Goal=   None    Shift=    0.000
 RMSDP=7.26D-07 MaxDP=1.04D-04 DE=-2.20D-07 OVMax= 3.90D-05

 Cycle  10  Pass 1  IDiag  1:
 RMSU=  3.54D-07    CP:  6.45D-01  9.04D-01  7.22D-01  9.11D-01  1.07D+00
                    CP:  9.92D-01  1.22D+00  1.09D+00  1.13D+00
 E= -1693.71534867317     Delta-E=       -0.000000036971 Rises=F Damp=F
 DIIS: error= 5.97D-07 at cycle  10 NSaved=  10.
 NSaved=10 IEnMin=10 EnMin= -1693.71534867317     IErMin=10 ErrMin= 5.97D-07
 ErrMax= 5.97D-07  0.00D+00 EMaxC= 1.00D-01 BMatC= 1.93D-09 BMatP= 4.09D-08
 IDIUse=1 WtCom= 1.00D+00 WtEn= 0.00D+00
 Coeff-Com:  0.339D-05 0.782D-04 0.127D-03 0.563D-04-0.539D-03-0.459D-02
 Coeff-Com: -0.260D-01 0.731D-02 0.153D+00 0.870D+00
 Coeff:      0.339D-05 0.782D-04 0.127D-03 0.563D-04-0.539D-03-0.459D-02
 Coeff:     -0.260D-01 0.731D-02 0.153D+00 0.870D+00
 Gap=     0.335 Goal=   None    Shift=    0.000
 RMSDP=2.52D-07 MaxDP=2.71D-05 DE=-3.70D-08 OVMax= 1.74D-05

 Cycle  11  Pass 1  IDiag  1:
 RMSU=  1.25D-07    CP:  6.45D-01  9.04D-01  7.22D-01  9.11D-01  1.07D+00
                    CP:  9.93D-01  1.23D+00  1.12D+00  1.25D+00  1.17D+00
 E= -1693.71534867644     Delta-E=       -0.000000003270 Rises=F Damp=F
 DIIS: error= 3.62D-07 at cycle  11 NSaved=  11.
 NSaved=11 IEnMin=11 EnMin= -1693.71534867644     IErMin=11 ErrMin= 3.62D-07
 ErrMax= 3.62D-07  0.00D+00 EMaxC= 1.00D-01 BMatC= 5.59D-10 BMatP= 1.93D-09
 IDIUse=1 WtCom= 1.00D+00 WtEn= 0.00D+00
 Coeff-Com: -0.580D-06-0.300D-05 0.535D-04 0.663D-03 0.178D-02-0.367D-03
 Coeff-Com: -0.210D-01-0.388D-01-0.209D-01 0.393D+00 0.686D+00
 Coeff:     -0.580D-06-0.300D-05 0.535D-04 0.663D-03 0.178D-02-0.367D-03
 Coeff:     -0.210D-01-0.388D-01-0.209D-01 0.393D+00 0.686D+00
 Gap=     0.335 Goal=   None    Shift=    0.000
 RMSDP=8.73D-08 MaxDP=1.25D-05 DE=-3.27D-09 OVMax= 9.36D-06

 Cycle  12  Pass 1  IDiag  1:
 RMSU=  4.79D-08    CP:  6.45D-01  9.04D-01  7.22D-01  9.11D-01  1.07D+00
                    CP:  9.93D-01  1.23D+00  1.14D+00  1.29D+00  1.26D+00
                    CP:  1.19D+00
 E= -1693.71534867712     Delta-E=       -0.000000000676 Rises=F Damp=F
 DIIS: error= 1.06D-07 at cycle  12 NSaved=  12.
 NSaved=12 IEnMin=12 EnMin= -1693.71534867712     IErMin=12 ErrMin= 1.06D-07
 ErrMax= 1.06D-07  0.00D+00 EMaxC= 1.00D-01 BMatC= 5.48D-11 BMatP= 5.59D-10
 IDIUse=1 WtCom= 1.00D+00 WtEn= 0.00D+00
 Coeff-Com: -0.581D-06-0.101D-04 0.247D-05 0.212D-03 0.648D-03 0.393D-03
 Coeff-Com: -0.333D-02-0.136D-01-0.272D-01 0.120D-01 0.227D+00 0.804D+00
 Coeff:     -0.581D-06-0.101D-04 0.247D-05 0.212D-03 0.648D-03 0.393D-03
 Coeff:     -0.333D-02-0.136D-01-0.272D-01 0.120D-01 0.227D+00 0.804D+00
 Gap=     0.335 Goal=   None    Shift=    0.000
 RMSDP=3.73D-08 MaxDP=4.00D-06 DE=-6.76D-10 OVMax= 4.42D-06

 Cycle  13  Pass 1  IDiag  1:
 RMSU=  2.44D-08    CP:  6.45D-01  9.04D-01  7.22D-01  9.11D-01  1.07D+00
                    CP:  9.93D-01  1.23D+00  1.14D+00  1.30D+00  1.29D+00
                    CP:  1.31D+00  1.17D+00
 E= -1693.71534867716     Delta-E=       -0.000000000045 Rises=F Damp=F
 DIIS: error= 5.86D-08 at cycle  13 NSaved=  13.
 NSaved=13 IEnMin=13 EnMin= -1693.71534867716     IErMin=13 ErrMin= 5.86D-08
 ErrMax= 5.86D-08  0.00D+00 EMaxC= 1.00D-01 BMatC= 1.28D-11 BMatP= 5.48D-11
 IDIUse=1 WtCom= 1.00D+00 WtEn= 0.00D+00
 Coeff-Com: -0.139D-06-0.390D-05-0.864D-05-0.284D-04-0.397D-04 0.204D-03
 Coeff-Com:  0.235D-02 0.111D-02-0.731D-02-0.643D-01-0.258D-01 0.345D+00
 Coeff-Com:  0.749D+00
 Coeff:     -0.139D-06-0.390D-05-0.864D-05-0.284D-04-0.397D-04 0.204D-03
 Coeff:      0.235D-02 0.111D-02-0.731D-02-0.643D-01-0.258D-01 0.345D+00
 Coeff:      0.749D+00
 Gap=     0.335 Goal=   None    Shift=    0.000
 RMSDP=1.46D-08 MaxDP=2.27D-06 DE=-4.55D-11 OVMax= 1.96D-06

 Cycle  14  Pass 1  IDiag  1:
 RMSU=  8.53D-09    CP:  6.45D-01  9.04D-01  7.22D-01  9.11D-01  1.07D+00
                    CP:  9.93D-01  1.23D+00  1.14D+00  1.30D+00  1.30D+00
                    CP:  1.37D+00  1.28D+00  1.09D+00
 E= -1693.71534867727     Delta-E=       -0.000000000103 Rises=F Damp=F
 DIIS: error= 2.55D-08 at cycle  14 NSaved=  14.
 NSaved=14 IEnMin=14 EnMin= -1693.71534867727     IErMin=14 ErrMin= 2.55D-08
 ErrMax= 2.55D-08  0.00D+00 EMaxC= 1.00D-01 BMatC= 1.83D-12 BMatP= 1.28D-11
 IDIUse=1 WtCom= 1.00D+00 WtEn= 0.00D+00
 Coeff-Com:  0.273D-07-0.214D-06-0.389D-05-0.422D-04-0.106D-03 0.248D-04
 Coeff-Com:  0.144D-02 0.234D-02 0.103D-02-0.280D-01-0.467D-01 0.143D-01
 Coeff-Com:  0.308D+00 0.748D+00
 Coeff:      0.273D-07-0.214D-06-0.389D-05-0.422D-04-0.106D-03 0.248D-04
 Coeff:      0.144D-02 0.234D-02 0.103D-02-0.280D-01-0.467D-01 0.143D-01
 Coeff:      0.308D+00 0.748D+00
 Gap=     0.335 Goal=   None    Shift=    0.000
[...]
 06337,-0.00000369,-0.00001829,-0.00004117,0.00001599,0.00004608,0.0001
 0422,-0.00012302,-0.00076442,0.00005158,0.00003774,-0.00001562,0.00004
 688,-0.00028016,0.00009693,-0.00001103,0.00000160,0.00006923,0.0010546
 9,0.00054731,-0.00014791,0.00007285,0.00003260,0.00005442,-0.00015891,
 -0.00004384,0.00002397,0.00000717,0.00000561,0.00018783,-0.00015473,0.
 00006878,-0.00015956,-0.00005772,-0.00003916,0.00003286,0.00000576,0.0
 0013398,-0.00017288,-0.00001384,-0.00003770,-0.00004369,0.00026526,0.0
 0019898,0.00031559,-0.00004042,0.00002133,-0.00004549,0.00014845,-0.00
 021261,0.00011323,0.00002038,-0.00010736,-0.00038108,0.00036165,-0.001
 15769,-0.00102818,-0.00018572,0.00019337,-0.00025552,-0.00023309,0.000
 94204,0.00071821,-0.00024177,-0.00044310,0.00009947,-0.00003465,0.0007
 1127,-0.00247213,-0.00009192,0.00007617,0.00034677,-0.00001308,0.00019
 389,0.00017127,-0.00090258,-0.00015722,-0.00117463,-0.00016076,0.00018
 367,0.00019698,0.00008671,0.00000418,-0.00027040,-0.00002535,-0.000009
 16,0.00012072,0.00016277,-0.00079393,-0.00017360,0.00000633,0.00014858
 ,0.00017969,0.00025923,-0.00003022,-0.00024987,-0.00006960,0.00007582,
 -0.00004547,0.00000535,-0.00003431,-0.00000189,0.00000150,0.00009938,0
 .00007428,-0.00039857,-0.00034865,0.00034626,0.00004598,-0.00035154,0.
 00025859,0.00000026,0.00007579,0.00024071,-0.00187982,0.00004546,0.000
 17361,0.00003063,-0.00020931,-0.00028493,-0.00012599,0.00169146,-0.000
 37594,0.00005144,0.00002143,0.00010052,0.00001127,-0.00040964,0.000275
 60,0.00041997,0.00005703,-0.00005956,0.00003876,0.00013891,-0.00007885
 ,-0.00008548,0.00001118,0.00004348,0.00000038,-0.00017244,0.00003655,-
 0.00004271,0.00019931,0.00044886,0.00033669,-0.00002003,-0.00038000,-0
 .00189719,0.00082457,-0.00046870,0.00116759,-0.00065968,0.00082327,0.0
 0077920,-0.00061941,-0.00001257,0.00083860,0.00016761,0.00007744,-0.00
 017293,-0.00000104,0.00011482,-0.13510914,0.05137091,0.02277116,-0.086
 56597,0.00639991,0.03931647,0.00180151,0.04441530,0.01096123,0.4917890
 8,-0.00001993,0.00000636,0.00001646,0.00002511,0.00006007,0.00002249,0
 .00002025,-0.00002147,0.00001445,0.00000397,0.00002797,0.00000263,-0.0
 0000978,-0.00000304,-0.00002152,-0.00015048,-0.00004524,0.00006205,-0.
 00001958,-0.00001339,-0.00003625,0.00006420,-0.00000687,-0.00000432,0.
 00008946,-0.00008784,0.00002174,0.00003598,0.00001887,-0.00004700,-0.0
 0000239,-0.00001234,-0.00001570,0.00003006,0.00004647,0.00001265,-0.00
 001120,-0.00006720,0.00000772,0.00001270,0.00003747,-0.00001411,-0.000
 00411,-0.00000253,-0.00002414,0.00000767,-0.00000660,-0.00000783,-0.00
 002999,-0.00000215,-0.00000159,0.00002501,0.00002017,0.00002598,0.0000
 1980,0.00001332,0.00000074,-0.00000517,0.00000107,-0.00000499,-0.00003
 048,-0.00000035,-0.00001137,-0.00001249,0.00001602,-0.00005741,-0.0000
 2493,0.00007062,-0.00001936,-0.00007605,0.00008219,-0.00001437,-0.0000
 1422,0.00001561,-0.00000094,0.00000683,-0.00003578,0.00000829,-0.00004
 036,-0.00005138,0.00013732,-0.00001745,-0.00004157,-0.00000768,0.00000
 225,0.00025470,0.00001980,0.00001130,-0.00004532,-0.00002451,-0.000070
 01,-0.00010674,0.00002943,0.00004278,-0.00004029,-0.00007863,0.0001205
 5,0.00004190,-0.00003300,0.00001170,0.00008503,-0.00009599,0.00020785,
 -0.00007128,0.00018807,0.00006264,0.00002343,-0.00005088,0.00001153,-0
 .00004680,0.00010819,0.00002849,-0.00002766,0.00004298,-0.00018131,-0.
 00002762,-0.00030378,0.00001897,-0.00007833,0.00002149,-0.00017786,0.0
 0000200,-0.00011227,-0.00003446,0.00020949,-0.00010199,-0.00109156,-0.
 00054430,0.00116980,0.00018358,-0.00031605,0.00004109,0.00038157,-0.00
 070987,-0.00020589,-0.00002961,0.00002226,-0.00004227,-0.00005681,-0.0
 0025374,0.00038475,-0.00028887,0.00016550,-0.00021101,0.00009745,-0.00
 014780,-0.00014197,0.00071858,0.00041230,0.00174913,0.00014035,-0.0002
 6685,-0.00014996,0.00005159,-0.00031553,0.00052876,0.00004715,-0.00008
 774,-0.00025034,-0.00043220,0.00140884,0.00045689,0.00002339,-0.000105
 49,-0.00029633,-0.00008913,0.00035969,0.00027051,0.00002845,-0.0001637
 4,0.00000188,0.00004622,-0.00006856,-0.00002614,0.00000394,-0.00003506
 ,-0.00000096,0.00012986,0.00059017,-0.00004905,-0.00004833,0.00015837,
 -0.00019863,-0.00010623,-0.00032673,-0.00003920,0.00085289,-0.00028059
 ,-0.00059438,-0.00002290,0.00022134,-0.00005067,0.00040777,-0.00045182
 ,-0.00003924,-0.00006744,-0.00006262,0.00004138,0.00003649,0.00026958,
 -0.00014840,-0.00024749,0.00009373,-0.00010501,-0.00005053,-0.00012659
 ,0.00006090,0.00002767,-0.00004797,-0.00003741,-0.00000809,0.00009277,
 -0.00002165,0.00014067,0.00013898,-0.00009473,-0.00030609,-0.00000116,
 0.00053671,0.00101225,-0.00191176,0.00028700,-0.00082555,0.00105435,-0
 .00069032,-0.00036917,0.00133660,0.00028650,-0.00011257,0.00027672,-0.
 00006936,0.00002204,-0.00003806,-0.00008694,0.00749214,-0.14395325,-0.
 00152634,-0.01362717,0.02603264,0.00404834,0.05794548,-0.07735816,-0.0
 2269815,0.14431162,0.46274771,-0.00000506,-0.00000989,-0.00000024,-0.0
 0000844,0.00001936,-0.00002396,0.00001482,-0.00001551,0.00000531,0.000
 01022,0.00002016,-0.00000271,-0.00000889,0.00000187,0.00000100,-0.0000
 6998,0.00000251,0.00001616,-0.00001171,-0.00000889,0.00001325,0.000027
 80,0.00000194,-0.00000097,0.00006749,0.00001378,-0.00000530,0.00001554
 ,0.00000678,-0.00000756,-0.00001698,-0.00000559,-0.00000348,0.00003886
 ,-0.00000429,0.00000987,-0.00004564,-0.00000387,-0.00000714,0.00002139
 ,-0.00001081,-0.00005991,0.00001494,-0.00000951,-0.00000414,-0.0000214
 2,-0.00000557,0.00001761,0.00003552,0.00000641,0.00001022,-0.00001279,
 0.00001044,0.00001277,0.00002529,0.00002011,0.00001215,-0.00000358,-0.
 00000580,-0.00000066,-0.00000689,-0.00002504,-0.00001126,0.00001401,-0
 .00000618,0.00003328,0.00002551,0.00003145,-0.00004566,0.00004349,0.00
 008251,-0.00016484,0.00001848,-0.00003863,0.00003824,0.00002563,-0.000
 00947,-0.00001467,0.00003314,0.00003656,0.00017037,-0.00000102,-0.0000
 2977,0.00000241,0.00003947,0.00005286,-0.00003158,-0.00000612,-0.00000
 090,0.00000196,-0.00037536,-0.00021307,0.00008159,0.00000603,0.0000036
 3,-0.00005163,0.00005914,-0.00003470,-0.00000748,-0.00004182,-0.000023
 81,-0.00001149,-0.00002653,-0.00001699,0.00006976,0.00001022,0.0000209
 6,-0.00001124,0.00003032,-0.00008732,0.00001851,0.00001080,0.00001723,
 0.00001701,0.00001106,-0.00000159,0.00005122,-0.00000946,0.00000681,0.
 00001311,-0.00006915,0.00009843,-0.00003200,-0.00030975,0.00008851,0.0
 0010131,0.00009156,0.00036329,0.00051682,-0.00001115,-0.00000531,0.000
 05649,-0.00008697,0.00013726,-0.00002926,0.00000492,0.00007598,0.00003
 195,-0.00014246,-0.00011306,0.00056341,0.00012651,0.00008320,0.0000655
 8,0.00001150,-0.00004348,0.00000084,-0.00018309,0.00038301,0.00032033,
 0.00000153,0.00003302,0.00009201,-0.00004364,0.00003149,-0.00004947,0.
 00001303,0.00000882,-0.00000187,0.00002088,0.00023234,0.00018420,-0.00
 000983,-0.00002897,-0.00005407,-0.00000084,0.00004148,0.00006822,-0.00
 000313,0.00001031,-0.00000024,0.00000895,-0.00000384,-0.00001038,-0.00
 000807,-0.00001088,-0.00000881,0.00008294,-0.00048688,0.00040998,0.000
 03610,0.00022676,-0.00015891,0.00002979,0.00012630,0.00007307,-0.00031
 271,-0.00019604,-0.00052722,0.00000666,-0.00004149,-0.00015365,0.00001
 191,-0.00050265,-0.00007021,0.00004086,0.00004639,-0.00000273,-0.00003
 387,0.00009674,-0.00012034,0.00023756,-0.00012502,0.00018199,0.0000324
 6,0.00005570,-0.00008587,-0.00001410,-0.00000656,0.00002911,-0.0000298
 1,0.00000233,-0.00000505,0.00003308,-0.00015693,-0.00012239,0.00005895
 ,0.00029493,-0.00030863,0.00009597,0.00029097,0.00014788,0.00000276,-0
 .00009325,-0.00013975,-0.00000981,-0.00018882,-0.00026554,-0.00012434,
 -0.00012132,-0.00015513,0.00005274,0.00002693,0.00009551,0.02620408,-0
 .01883153,-0.07931017,0.03588860,-0.00256681,0.00652142,0.01014138,-0.
 01550766,0.02528426,-0.16784197,-0.05800788,0.09642074,-0.00001229,-0.
 00000946,0.00000155,0.00000681,0.00000486,-0.00001731,0.00000509,0.000
 00080,-0.00000082,0.00000887,0.00001093,-0.00000088,0.00000295,0.00000
 934,0.00000290,0.00002073,0.00001283,-0.00000487,-0.00000832,0.0000036
 4,0.00001428,0.00000844,-0.00000456,-0.00000057,-0.00002134,-0.0000018
 5,-0.00002580,0.00000245,-0.00000468,0.00000679,-0.00001317,0.00000128
 ,-0.00000160,0.00001669,0.00000127,-0.00000214,0.00000616,0.00001348,0
 .00000782,-0.00002813,-0.00002427,-0.00000649,-0.00000080,0.00000274,0
 .00000844,-0.00000601,0.00000217,0.00000463,0.00002050,0.00000105,0.00
 000033,-0.00000484,-0.00000392,-0.00000425,0.00000042,0.00000993,0.000
 00582,0.00000028,-0.00000243,-0.00000304,0.00000954,-0.00000885,0.0000
 0146,-0.00001364,0.00000151,0.00003894,-0.00000303,-0.00001159,0.00000
 570,0.00004071,-0.00001557,0.00002707,0.00002880,0.00002984,0.00000635
 ,-0.00000439,0.00000083,-0.00000793,-0.00003023,0.00001662,-0.00005142
 ,-0.00001223,-0.00000588,-0.00001343,-0.00002516,-0.00001107,-0.000011
 99,-0.00000367,0.00000201,0.00000088,0.00003429,0.00001730,0.00002693,
 -0.00004095,-0.00002140,0.00001576,0.00002876,0.00002935,0.00002064,0.
 00003656,0.00001737,-0.00008004,0.00002527,-0.00001228,-0.00001686,0.0
 0001041,0.00000099,-0.00000670,0.00000054,0.00000759,0.00008138,-0.000
 00107,0.00000950,0.00000628,-0.00002956,-0.00004925,-0.00009603,-0.000
 00266,-0.00000598,0.00000862,-0.00004065,-0.00000420,-0.00000784,0.000
 04205,0.00014670,-0.00005570,-0.00032974,-0.00015664,0.00029025,0.0000
 4270,-0.00004774,-0.00000106,-0.00000830,-0.00003359,0.00001364,0.0000
 2211,-0.00000803,0.00000890,-0.00008600,0.00001375,-0.00001847,-0.0000
 4522,0.00001840,-0.00005445,0.00003376,-0.00008685,-0.00006194,0.00021
 445,0.00016141,0.00039027,0.00003445,-0.00003232,-0.00003578,-0.000002
 50,-0.00004870,0.00012488,0.00001445,-0.00002331,-0.00004228,-0.000085
 47,0.00029028,0.00010982,0.00000425,-0.00003427,-0.00007216,-0.0000136
 4,0.00005262,0.00004551,0.00001322,-0.00001721,0.00000769,-0.00001183,
 0.00000201,-0.00000418,0.00000805,-0.00000078,0.00000721,0.00002492,-0
 .00005894,-0.00011912,0.00002510,0.00006303,-0.00000271,0.00004775,0.0
 0005088,-0.00005088,-0.00001441,-0.00014714,0.00046285,0.00002538,-0.0
 0006176,0.00004003,-0.00011423,-0.00001014,0.00002829,0.00001324,0.000
 01792,-0.00002515,-0.00001335,-0.00001517,0.00001233,0.00001498,-0.000
 02487,0.00003115,0.00001393,0.00001263,-0.00000333,0.00000355,-0.00000
 855,-0.00000116,0.00000241,0.00000355,0.00000568,-0.00001026,0.0000107
 9,0.00001024,-0.00000524,0.00004449,-0.00006513,0.00031228,0.00004598,
 0.00008592,-0.00013665,0.00007162,-0.00012093,-0.00011213,-0.00002330,
 -0.00004906,-0.00019948,-0.00005716,-0.00004733,0.00006176,0.00000111,
 0.00000026,-0.03676016,-0.03216572,0.01345666,-0.00587483,0.00617989,0
 .00387684,0.00726808,-0.00404122,-0.00449193,-0.27085305,-0.19624827,0
 .09607250,0.30642149,0.00000398,-0.00000133,-0.00000301,-0.00000518,-0
 .00000807,-0.00000446,-0.00000201,0.00000227,-0.00000187,-0.00000070,-
 0.00000294,-0.00000054,0.00000076,0.00000017,0.00000336,0.00001635,0.0
 0000680,-0.00000927,0.00000271,0.00000144,0.00000614,-0.00000874,0.000
 00119,0.00000067,-0.00000832,0.00001411,-0.00000116,-0.00000417,-0.000
 00252,0.00000625,0.00000033,0.00000162,0.00000191,-0.00000334,-0.00000
 698,-0.00000119,-0.00000055,0.00000951,-0.00000491,-0.00000045,-0.0000
 0422,-0.00000048,0.00000184,-0.00000061,0.00000307,-0.00000234,0.00000
 057,0.00000208,0.00000569,0.00000047,0.00000072,-0.00000405,-0.0000026
 0,-0.00000361,-0.00000217,-0.00000162,0.00000041,0.00000085,-0.0000003
 3,0.00000076,0.00000379,-0.00000074,0.00000158,0.00000451,-0.00000659,
 0.00001196,0.00000370,-0.00000706,-0.00000721,0.00001516,-0.00000464,-
 0.00001508,0.00000546,-0.00000717,-0.00000244,0.00000067,0.00000561,-0
 .00000161,0.00000791,0.00001132,0.00000858,0.00000046,0.00000593,0.000
 00148,-0.00000030,-0.00002223,-0.00000709,-0.00000035,0.00000722,0.000
 00124,-0.00003985,-0.00001266,0.00000928,-0.00000261,0.00000732,0.0000
 0474,-0.00001214,-0.00000710,0.00000135,-0.00001058,-0.00001666,0.0000
 1553,-0.00003122,0.00000707,-0.00001987,-0.00000813,-0.00000123,0.0000
 0695,0.00000049,-0.00000329,-0.00000971,-0.00000418,0.00000647,-0.0000
 0551,0.00001886,-0.00001142,0.00003020,-0.00000014,0.00001205,-0.00000
 294,0.00001756,0.00001197,0.00001394,0.00003281,0.00003925,0.00005154,
 0.00013381,0.00008459,-0.00012044,-0.00002324,0.00004161,-0.00000201,-
 0.00002178,0.00005573,-0.00001690,0.00001077,0.00002333,-0.00000092,0.
 00000586,-0.00000107,0.00006582,0.00003589,-0.00006256,-0.00005482,-0.
 00001096,-0.00000811,-0.00002315,0.00010599,-0.00001633,-0.00025183,-0
 .00003045,0.00004064,0.00001597,-0.00000608,-0.00000121,-0.00005630,-0
 .00001139,0.00001072,0.00002723,0.00007470,-0.00006331,-0.00004042,0.0
 0000711,-0.00001408,0.00000327,-0.00001125,-0.00004850,-0.00005019,-0.
 00000060,0.00002685,-0.00000429,-0.00001083,0.00001717,0.00001129,-0.0
 0000121,-0.00000258,-0.00000405,-0.00001412,0.00008429,0.00005194,-0.0
 0001341,-0.00003964,0.00001703,-0.00000947,-0.00001374,0.00005213,-0.0
 0013898,-0.00008478,-0.00012902,-0.00002287,0.00004245,-0.00004025,0.0
 0006541,-0.00000358,-0.00002475,0.00000362,-0.00000646,0.00002007,-0.0
 0000057,-0.00000552,0.00000360,0.00000749,0.00000947,0.00001353,0.0000
 0351,0.00000672,-0.00000431,-0.00000182,0.00000487,0.00000654,-0.00000
 050,-0.00000703,-0.00000217,-0.00006408,-0.00002233,0.00007631,0.00005
 187,-0.00004793,-0.00002710,-0.00011848,0.00029970,-0.00003420,0.00009
 895,-0.00016386,0.00009438,0.00004435,-0.00020249,-0.00003341,-0.00000
 078,-0.00005677,0.00001474,-0.00000596,0.00001205,0.00001297,0.0145447
 2,0.02312140,-0.00559872,0.00743781,-0.00058205,-0.00255823,-0.0012670
 7,-0.00684454,0.00058093,-0.24699295,-0.26799909,0.09449605,0.22615462
 ,0.25239563,0.00000384,0.00000306,0.00000369,0.00000091,-0.00000614,0.
 00001484,-0.00000435,0.00000334,-0.00000216,-0.00000750,-0.00000694,0.
 00000243,0.00000482,0.00000097,-0.00000383,0.00003511,0.00000626,-0.00
 000655,0.00000393,0.00000497,-0.00001064,-0.00001125,-0.00000224,-0.00
 000109,-0.00003367,-0.00000022,0.00000578,-0.00000758,-0.00000259,0.00
 000064,0.00000253,0.00000441,-0.00000379,-0.00001037,-0.00000255,-0.00
 000674,0.00000777,0.00000798,0.00000279,-0.00001037,-0.00000949,0.0000
 3574,0.00000255,0.00000573,-0.00000451,0.00000786,0.00000353,-0.000015
 18,-0.00000824,0.00000050,-0.00000540,0.00000449,-0.00000418,-0.000003
 38,-0.00000784,-0.00000604,-0.00000326,0.00000067,0.00000240,-0.000003
 27,0.00000446,0.00000489,0.00000403,-0.00000915,-0.00000074,-0.0000180
 7,0.00001949,-0.00002535,0.00001672,0.00000016,-0.00001619,-0.00000588
 ,-0.00002046,0.00002627,-0.00002290,-0.00000643,0.00000458,-0.00000197
 ,-0.00002903,0.00002160,0.00002239,-0.00000736,0.00001234,0.00001126,0
 .00002598,-0.00002993,-0.00001339,0.00000555,0.00000714,-0.00001334,-0
 .00001040,-0.00002417,0.00003773,-0.00001854,-0.00000034,0.00002847,-0
 .00002248,0.00001634,-0.00000401,0.00000619,0.00000314,-0.00003350,-0.
 00001008,0.00000579,-0.00004301,-0.00000743,-0.00000667,0.00000778,-0.
 00004293,0.00000887,0.00006195,-0.00001447,-0.00000502,-0.00000618,0.0
 0001658,-0.00001130,0.00000515,0.00001621,0.00000783,-0.00000853,0.000
 01925,0.00000547,0.00000547,0.00009635,0.00008803,0.00000637,0.0000899
 7,0.00000972,-0.00003169,0.00002054,0.00000524,-0.00002602,0.00004350,
 -0.00007607,0.00003104,0.00002103,0.00000450,0.00000098,-0.00000020,0.
 00004447,0.00000540,0.00010083,-0.00012428,-0.00019491,-0.00002814,0.0
 0003323,0.00002472,0.00023109,-0.00024403,-0.00011343,0.00000155,0.000
 01038,-0.00006234,-0.00001535,-0.00002384,0.00006054,-0.00001997,0.000
 02059,0.00000760,0.00003635,-0.00010151,-0.00000662,0.00000705,-0.0000
 0436,0.00001614,-0.00006512,-0.00002688,-0.00007658,0.00001592,0.00000
 293,-0.00000727,-0.00001826,0.00002381,0.00002536,0.00000816,-0.000012
 49,-0.00000325,0.00008566,0.00009860,-0.00020817,-0.00000567,-0.000002
 70,0.00000452,0.00001970,0.00005267,-0.00008884,0.00023383,0.00000319,
 0.00033446,-0.00000482,0.00003963,0.00005537,0.00000362,-0.00003003,-0
 .00001814,-0.00001520,-0.00001065,-0.00000031,0.00001074,0.00000610,0.
 00000030,-0.00003454,0.00002931,-0.00004160,-0.00000522,-0.00000888,0.
 00001876,0.00001254,0.00001331,-0.00000280,0.00001141,-0.00000125,0.00
 000375,-0.00009524,0.00006232,0.00008779,-0.00006910,-0.00006951,0.000
 04297,0.00018046,0.00006970,-0.00003495,-0.00010846,-0.00000843,0.0000
 4431,-0.00006755,-0.00005813,0.00005191,-0.00011587,-0.00004774,0.0001
 1072,0.00000426,0.00000326,-0.00008027,0.01233166,0.01119419,-0.004860
 45,0.00372608,-0.00209797,0.00395533,-0.00431120,0.00142862,-0.0022473
 6,0.09748997,0.07626577,-0.04968327,-0.10969074,-0.08656811,0.05287363
 \\0.00000003,-0.00000059,-0.00000052,-0.00000038,0.00000056,-0.0000001
 5,-0.00000012,0.00000065,-0.00000075,0.00000021,-0.00000008,-0.0000002
 8,0.00000007,0.00000013,-0.00000055,0.00000066,0.00000026,-0.00000115,
 0.00000028,0.00000043,-0.00000071,0.00000041,0.00000010,-0.00000049,-0
 .00000047,0.00000016,-0.00000266,-0.00000006,0.00000009,0.00000014,-0.
 00000027,-0.00000005,0.00000068,0.00000054,0.00000038,-0.00000041,0.00
 000088,0.00000001,-0.00000104,-0.00000048,-0.00000048,-0.00000218,-0.0
 0000037,0.00000006,0.00000014,-0.00000023,0.00000014,0.00000054,0.0000
 0042,0.00000025,-0.00000066,-0.00000064,0.00000080,-0.00000078,-0.0000
 0013,0.00000011,-0.00000089,-0.00000021,0.00000007,-0.00000029,0.00000
 033,-0.00000015,-0.00000051,0.00000049,0.00000109,0.00000101,-0.000000
 73,-0.00000014,-0.00000222,-0.00000074,-0.00000014,0.00000007,-0.00000
 032,-0.00000063,0.00000082,-0.00000091,-0.00000009,0.00000039,0.000000
 53,0.00000016,0.00000055,-0.00000031,-0.00000032,-0.00000121,0.0000010
 1,0.00000100,-0.00000043,-0.00000043,0.00000008,-0.00000027,0.00000053
 ,-0.00000057,-0.00000060,0.00000035,-0.00000090,0.00000117,-0.00000057
 ,0.00000013,-0.00000147,0.00000027,0.00000057,-0.00000025,-0.00000018,
 -0.00000118,-0.00000084,-0.00000054,0.00000093,0.00000039,0.00000012,-
 0.00000040,0.00000013,0.00000003,0.00000082,-0.00000050,0.00000103,0.0
 0000007,0.00000069,-0.00000030,0.00000057,0.00000018,0.00000019,0.0000
 0059,0.00000021,-0.00000118,-0.00000074,0.00000016,0.00000092,-0.00000
 072,-0.00000035,0.00000006,0.00000008,0.00000020,-0.00000048,-0.000000
 08,0.00000173,0.00000016,0.00000024,-0.00000022,0.00000059,-0.00000043
 ,-0.00000012,0.00000031,-0.00000018,0.00000068,-0.00000005,-0.00000030
 ,0.00000067,-0.00000023,-0.00000008,0.00000073,0.00000011,0.00000005,0
 .00000018,-0.00000018,0.00000029,0.00000135,0.00000060,-0.00000003,0.0
 0000033,0.00000081,-0.00000026,-0.00000025,0.00000008,-0.00000029,0.00
 000049,0.00000035,-0.00000167,-0.00000040,0.00000002,0.00000028,0.0000
 0051,-0.00000081,0.00000024,0.00000026,0.00000025,0.00000036,0.0000004
 7,-0.00000028,0.00000002,-0.00000011,0.,0.00000004,0.00000052,0.000000
 04,-0.00000030,0.00000032,-0.00000033,-0.00000023,0.00000065,-0.000000
 13,0.00000023,0.00000060,0.00000041,-0.00000017,0.00000012,0.00000018,
 -0.00000003,-0.00000008,-0.00000004,-0.00000022,0.00000015,-0.00000032
 ,-0.00000010,0.00000011,-0.00000043,-0.00000021,-0.00000002,-0.0000002
 3,-0.00000053,0.00000048,-0.00000039,0.00000012,0.00000012,0.00000096,
 0.00000064,0.00000020,0.00000007,0.00000014,-0.00000046,0.00000169,0.0
 0000100,0.00000072,-0.00000154,-0.00000073,0.00000076,-0.00000138,-0.0
 0000118,-0.00000005,-0.00000045,0.00000021,0.00000032,-0.00000061,-0.0
 0000032,0.00000075,-0.00000083,0.00000028,0.00000153,0.00000017,0.0000
 0015,0.00000078,0.00000068,0.00000036,0.00000039,0.00000167,0.00000035
 ,-0.00000096,-0.00000023,-0.00000076,0.00000143\\\@


 ... THE UNIVERSE IS NOT ONLY QUEERER THAN WE SUPPOSE,
 BUT QUEERER THAN WE CAN SUPPOSE ... 

                                   -- J. B. S. HALDANE
 Job cpu time:      17 days  9 hours 45 minutes 24.0 seconds.
 Elapsed time:       0 days 21 hours  9 minutes 18.5 seconds.
 File lengths (MBytes):  RWF=  26944 Int=      0 D2E=      0 Chk=    151 Scr=      1
 Normal termination of Gaussian 16 at Sun Mar 17 13:42:10 2024.
