 Entering Gaussian System, Link 0=g16
 Input=1water.gjf
 Output=1water.log
 Initial command:
 /packages/apps/gaussian/g16/g16/l1.exe "/scratch/mdturne9/3-5-methyl/geo/Gau-495182.inp" -scrdir="/scratch/mdturne9/3-5-methyl/geo/"
 Entering Link 1 = /packages/apps/gaussian/g16/g16/l1.exe PID=    495183.
  
 Copyright (c) 1988,1990,1992,1993,1995,1998,2003,2009,2016,
            Gaussian, Inc.  All Rights Reserved.
  
 This is part of the Gaussian(R) 16 program.  It is based on
 the Gaussian(R) 09 system (copyright 2009, Gaussian, Inc.),
 the Gaussian(R) 03 system (copyright 2003, Gaussian, Inc.),
 the Gaussian(R) 98 system (copyright 1998, Gaussian, Inc.),
 the Gaussian(R) 94 system (copyright 1995, Gaussian, Inc.),
 the Gaussian 92(TM) system (copyright 1992, Gaussian, Inc.),
 the Gaussian 90(TM) system (copyright 1990, Gaussian, Inc.),
 the Gaussian 88(TM) system (copyright 1988, Gaussian, Inc.),
 the Gaussian 86(TM) system (copyright 1986, Carnegie Mellon
 University), and the Gaussian 82(TM) system (copyright 1983,
 Carnegie Mellon University). Gaussian is a federally registered
 trademark of Gaussian, Inc.
  
 This software contains proprietary and confidential information,
 including trade secrets, belonging to Gaussian, Inc.
  
 This software is provided under written license and may be
 used, copied, transmitted, or stored only in accord with that
 written license.
  
 The following legend is applicable only to US Government
 contracts under FAR:
  
                    RESTRICTED RIGHTS LEGEND
  
 Use, reproduction and disclosure by the US Government is
 subject to restrictions as set forth in subparagraphs (a)
 and (c) of the Commercial Computer Software - Restricted
 Rights clause in FAR 52.227-19.
  
 Gaussian, Inc.
 340 Quinnipiac St., Bldg. 40, Wallingford CT 06492
  
  
 ---------------------------------------------------------------
 Warning -- This program may not be used in any manner that
 competes with the business of Gaussian, Inc. or will provide
 assistance to any competitor of Gaussian, Inc.  The licensee
 of this program is prohibited from giving any competitor of
 Gaussian, Inc. access to this program.  By using this program,
 the user acknowledges that Gaussian, Inc. is engaged in the
 business of creating and licensing software in the field of
 computational chemistry and represents and warrants to the
 licensee that it is not a competitor of Gaussian, Inc. and that
 it will not use this program in any manner prohibited above.
 ---------------------------------------------------------------
  

 Cite this work as:
 Gaussian 16, Revision A.03,
 M. J. Frisch, G. W. Trucks, H. B. Schlegel, G. E. Scuseria, 
 M. A. Robb, J. R. Cheeseman, G. Scalmani, V. Barone, 
 G. A. Petersson, H. Nakatsuji, X. Li, M. Caricato, A. V. Marenich, 
 J. Bloino, B. G. Janesko, R. Gomperts, B. Mennucci, H. P. Hratchian, 
 J. V. Ortiz, A. F. Izmaylov, J. L. Sonnenberg, D. Williams-Young, 
 F. Ding, F. Lipparini, F. Egidi, J. Goings, B. Peng, A. Petrone, 
 T. Henderson, D. Ranasinghe, V. G. Zakrzewski, J. Gao, N. Rega, 
 G. Zheng, W. Liang, M. Hada, M. Ehara, K. Toyota, R. Fukuda, 
 J. Hasegawa, M. Ishida, T. Nakajima, Y. Honda, O. Kitao, H. Nakai, 
 T. Vreven, K. Throssell, J. A. Montgomery, Jr., J. E. Peralta, 
 F. Ogliaro, M. J. Bearpark, J. J. Heyd, E. N. Brothers, K. N. Kudin, 
 V. N. Staroverov, T. A. Keith, R. Kobayashi, J. Normand, 
 K. Raghavachari, A. P. Rendell, J. C. Burant, S. S. Iyengar, 
 J. Tomasi, M. Cossi, J. M. Millam, M. Klene, C. Adamo, R. Cammi, 
 J. W. Ochterski, R. L. Martin, K. Morokuma, O. Farkas, 
 J. B. Foresman, and D. J. Fox, Gaussian, Inc., Wallingford CT, 2016.
 
 ******************************************
 Gaussian 16:  ES64L-G16RevA.03 25-Dec-2016
                14-Mar-2024 
 ******************************************
 %nprocshared=20
 Will use up to   20 processors via shared memory.
 %mem=8GB
 %chk=1water.chk
 -----------------------------------
 #p opt=calcfc wb97xd/6-311+g(2d,2p)
 -----------------------------------
 1/10=4,18=20,19=15,26=3,38=1/1,3;
 2/9=110,12=2,17=6,18=5,40=1/2;
 3/5=4,6=6,7=212,11=2,25=1,30=1,71=2,74=-58,140=1/1,2,3;
 4//1;
 5/5=2,38=5/2;
 8/6=4,10=90,11=11/1;
 11/6=1,8=1,9=11,15=111,16=1/1,2,10;
 10/6=1,13=1/2;
 6/7=2,8=2,9=2,10=2,28=1/1;
 7/10=1,18=20,25=1/1,2,3,16;
 1/10=4,18=20,19=15,26=3/3(2);
 2/9=110/2;
 99//99;
 2/9=110/2;
 3/5=4,6=6,7=212,11=2,25=1,30=1,71=1,74=-58/1,2,3;
 4/5=5,16=3,69=1/1;
 5/5=2,38=5/2;
 7//1,2,3,16;
 1/18=20,19=15,26=3/3(-5);
 2/9=110/2;
 6/7=2,8=2,9=2,10=2,19=2,28=1/1;
 99/9=1/99;
 Leave Link    1 at Thu Mar 14 13:13:11 2024, MaxMem=  1073741824 cpu:               4.0 elap:               0.3
 (Enter /packages/apps/gaussian/g16/g16/l101.exe)
 -------------------------
 CARBONATE FROM NAKIE High
 -------------------------
 Symbolic Z-matrix:
 Charge =  0 Multiplicity = 1
 C                    -4.14137   3.37134  -1.9558 
 C                    -4.66522   2.45844  -0.85417 
 H                    -4.83061   4.19484  -2.14285 
 H                    -3.17233   3.79502  -1.69095 
 H                    -4.01574   2.8206   -2.89018 
 C                    -3.77158   1.23616  -0.5887 
 H                    -4.78466   3.02671   0.07282 
 H                    -5.66221   2.0993   -1.12109 
 C                    -4.39296   0.33008   0.49716 
 H                    -3.72268   0.66482  -1.52104 
 H                    -4.0269    0.63568   1.48045 
 H                    -5.47379   0.4912    0.5166 
 C                    -4.1683   -1.18137   0.31679 
 C                    -4.76548  -1.95467   1.50065 
 H                    -4.72121  -1.47937  -0.58014 
 H                    -4.22373  -1.68604   2.41174 
 H                    -5.79507  -1.61872   1.64752 
 C                    -4.74217  -3.46714   1.31564 
 H                    -5.20163  -3.97339   2.16446 
 H                    -5.2889   -3.75863   0.41659 
 H                    -3.7207   -3.83607   1.2166 
 C                    -2.71919  -1.54605   0.07413 
 C                    -2.33462  -2.10663  -1.13771 
 C                    -1.72966  -1.28972   1.02142 
 C                    -1.0025   -2.37949  -1.40877 
 H                    -3.08531  -2.30896  -1.8918 
 C                    -0.39741  -1.5473    0.74927 
 H                    -1.99416  -0.82444   1.96253 
 C                    -0.01453  -2.10193  -0.47192 
 H                    -0.72696  -2.78296  -2.37589 
 H                     0.36907  -1.26216   1.45875 
 C                    -2.35478   1.64972  -0.23555 
 C                    -1.26768   1.26693  -1.01445 
 C                    -2.10655   2.39382   0.91462 
 C                     0.03112   1.5555   -0.62894 
 H                    -1.43711   0.67262  -1.90309 
 C                    -0.81168   2.71336   1.28932 
 H                    -2.93054   2.7095    1.54281 
 C                     0.27442   2.28906   0.53051 
 H                     0.87847   1.18273  -1.19388 
 H                    -0.64244   3.26731   2.20566 
 C                     1.68372   2.49442   0.99045 
 H                     1.72005   2.67245   2.06539 
 H                     2.27799   1.59097   0.75594 
 C                     1.43818  -2.27758  -0.79923 
 H                     1.61165  -2.18705  -1.86998 
 H                     2.03857  -1.51799  -0.28009 
 C                     3.85774   3.5095    0.67091 
 H                     4.39079   4.39861   0.3396 
 H                     3.97825   3.37413   1.74308 
 H                     4.17814   2.62095   0.11976 
 C                     1.90269   4.94944   0.9687 
 H                     0.8324    5.02067   0.79048 
 H                     2.10102   4.94246   2.03793 
 H                     2.41193   5.7907    0.50418 
 C                     2.24086   3.73994  -1.11151 
 H                     2.59237   2.77744  -1.49665 
 H                     1.19612   3.92444  -1.34279 
 H                     2.85583   4.55868  -1.4799 
 C                     3.42519  -3.66017  -0.96928 
 H                     3.93991  -4.51717  -0.54026 
 H                     3.34742  -3.77149  -2.04878 
 H                     3.92373  -2.70173  -0.74585 
 C                     2.11888  -3.73952   1.07821 
 H                     2.81563  -2.9861    1.45608 
 H                     1.12339  -3.61419   1.49476 
 H                     2.49238  -4.73407   1.3141 
 C                     1.24211  -4.747    -0.9496 
 H                     0.2594   -4.75462  -0.48684 
 H                     1.14111  -4.62277  -2.02499 
 H                     1.76521  -5.67556  -0.73426 
 N                     2.40379   3.68938   0.37404 
 N                     2.03654  -3.62045  -0.40645 
 C                     3.67737   0.0625   -0.58588 
 O                     4.42212  -0.892    -0.95298 
 O                     2.96718  -0.07088   0.52542 
 O                     3.55141   1.15086  -1.24467 
 O                     4.33643  -1.7312    2.01099 
 H                     5.08092  -1.83162   1.41489 
 H                     3.79584  -1.05335   1.50778 
 
 Add virtual bond connecting atoms H80        and O76        Dist= 3.06D+00.
 Add virtual bond connecting atoms O75        and H63        Dist= 3.57D+00.
 Add virtual bond connecting atoms O76        and H44        Dist= 3.43D+00.
 Add virtual bond connecting atoms O76        and H47        Dist= 3.59D+00.
 Add virtual bond connecting atoms O77        and H57        Dist= 3.60D+00.
 ITRead=  0  0  0  0  0  0  0  0  0  0  0  0  0  0  0  0  0  0  0  0
 ITRead=  0  0  0  0  0  0  0  0  0  0  0  0  0  0  0  0  0  0  0  0
 ITRead=  0  0  0  0  0  0  0  0  0  0  0  0  0  0  0  0  0  0  0  0
 ITRead=  0  0  0  0  0  0  0  0  0  0  0  0  0  0  0  0  0  0  0  0
 MicOpt= -1 -1 -1 -1 -1 -1 -1 -1 -1 -1 -1 -1 -1 -1 -1 -1 -1 -1 -1 -1
 MicOpt= -1 -1 -1 -1 -1 -1 -1 -1 -1 -1 -1 -1 -1 -1 -1 -1 -1 -1 -1 -1
 MicOpt= -1 -1 -1 -1 -1 -1 -1 -1 -1 -1 -1 -1 -1 -1 -1 -1 -1 -1 -1 -1
 MicOpt= -1 -1 -1 -1 -1 -1 -1 -1 -1 -1 -1 -1 -1 -1 -1 -1 -1 -1 -1 -1
 NAtoms=     80 NQM=       80 NQMF=       0 NMMI=      0 NMMIF=      0
                NMic=       0 NMicF=      0.
                    Isotopes and Nuclear Properties:
 (Nuclear quadrupole moments (NQMom) in fm**2, nuclear magnetic moments (NMagM)
  in nuclear magnetons)

  Atom         1           2           3           4           5           6           7           8           9          10
 IAtWgt=          12          12           1           1           1          12           1           1          12           1
 AtmWgt=  12.0000000  12.0000000   1.0078250   1.0078250   1.0078250  12.0000000   1.0078250   1.0078250  12.0000000   1.0078250
 NucSpn=           0           0           1           1           1           0           1           1           0           1
 AtZEff=  -0.0000000  -0.0000000  -0.0000000  -0.0000000  -0.0000000  -0.0000000  -0.0000000  -0.0000000  -0.0000000  -0.0000000
 NQMom=    0.0000000   0.0000000   0.0000000   0.0000000   0.0000000   0.0000000   0.0000000   0.0000000   0.0000000   0.0000000
 NMagM=    0.0000000   0.0000000   2.7928460   2.7928460   2.7928460   0.0000000   2.7928460   2.7928460   0.0000000   2.7928460
 AtZNuc=   6.0000000   6.0000000   1.0000000   1.0000000   1.0000000   6.0000000   1.0000000   1.0000000   6.0000000   1.0000000

  Atom        11          12          13          14          15          16          17          18          19          20
 IAtWgt=           1           1          12          12           1           1           1          12           1           1
 AtmWgt=   1.0078250   1.0078250  12.0000000  12.0000000   1.0078250   1.0078250   1.0078250  12.0000000   1.0078250   1.0078250
 NucSpn=           1           1           0           0           1           1           1           0           1           1
 AtZEff=  -0.0000000  -0.0000000  -0.0000000  -0.0000000  -0.0000000  -0.0000000  -0.0000000  -0.0000000  -0.0000000  -0.0000000
 NQMom=    0.0000000   0.0000000   0.0000000   0.0000000   0.0000000   0.0000000   0.0000000   0.0000000   0.0000000   0.0000000
 NMagM=    2.7928460   2.7928460   0.0000000   0.0000000   2.7928460   2.7928460   2.7928460   0.0000000   2.7928460   2.7928460
 AtZNuc=   1.0000000   1.0000000   6.0000000   6.0000000   1.0000000   1.0000000   1.0000000   6.0000000   1.0000000   1.0000000

  Atom        21          22          23          24          25          26          27          28          29          30
 IAtWgt=           1          12          12          12          12           1          12           1          12           1
 AtmWgt=   1.0078250  12.0000000  12.0000000  12.0000000  12.0000000   1.0078250  12.0000000   1.0078250  12.0000000   1.0078250
 NucSpn=           1           0           0           0           0           1           0           1           0           1
 AtZEff=  -0.0000000  -0.0000000  -0.0000000  -0.0000000  -0.0000000  -0.0000000  -0.0000000  -0.0000000  -0.0000000  -0.0000000
 NQMom=    0.0000000   0.0000000   0.0000000   0.0000000   0.0000000   0.0000000   0.0000000   0.0000000   0.0000000   0.0000000
 NMagM=    2.7928460   0.0000000   0.0000000   0.0000000   0.0000000   2.7928460   0.0000000   2.7928460   0.0000000   2.7928460
 AtZNuc=   1.0000000   6.0000000   6.0000000   6.0000000   6.0000000   1.0000000   6.0000000   1.0000000   6.0000000   1.0000000

  Atom        31          32          33          34          35          36          37          38          39          40
 IAtWgt=           1          12          12          12          12           1          12           1          12           1
 AtmWgt=   1.0078250  12.0000000  12.0000000  12.0000000  12.0000000   1.0078250  12.0000000   1.0078250  12.0000000   1.0078250
 NucSpn=           1           0           0           0           0           1           0           1           0           1
 AtZEff=  -0.0000000  -0.0000000  -0.0000000  -0.0000000  -0.0000000  -0.0000000  -0.0000000  -0.0000000  -0.0000000  -0.0000000
 NQMom=    0.0000000   0.0000000   0.0000000   0.0000000   0.0000000   0.0000000   0.0000000   0.0000000   0.0000000   0.0000000
 NMagM=    2.7928460   0.0000000   0.0000000   0.0000000   0.0000000   2.7928460   0.0000000   2.7928460   0.0000000   2.7928460
 AtZNuc=   1.0000000   6.0000000   6.0000000   6.0000000   6.0000000   1.0000000   6.0000000   1.0000000   6.0000000   1.0000000

  Atom        41          42          43          44          45          46          47          48          49          50
 IAtWgt=           1          12           1           1          12           1           1          12           1           1
 AtmWgt=   1.0078250  12.0000000   1.0078250   1.0078250  12.0000000   1.0078250   1.0078250  12.0000000   1.0078250   1.0078250
 NucSpn=           1           0           1           1           0           1           1           0           1           1
 AtZEff=  -0.0000000  -0.0000000  -0.0000000  -0.0000000  -0.0000000  -0.0000000  -0.0000000  -0.0000000  -0.0000000  -0.0000000
 NQMom=    0.0000000   0.0000000   0.0000000   0.0000000   0.0000000   0.0000000   0.0000000   0.0000000   0.0000000   0.0000000
 NMagM=    2.7928460   0.0000000   2.7928460   2.7928460   0.0000000   2.7928460   2.7928460   0.0000000   2.7928460   2.7928460
 AtZNuc=   1.0000000   6.0000000   1.0000000   1.0000000   6.0000000   1.0000000   1.0000000   6.0000000   1.0000000   1.0000000

  Atom        51          52          53          54          55          56          57          58          59          60
 IAtWgt=           1          12           1           1           1          12           1           1           1          12
 AtmWgt=   1.0078250  12.0000000   1.0078250   1.0078250   1.0078250  12.0000000   1.0078250   1.0078250   1.0078250  12.0000000
 NucSpn=           1           0           1           1           1           0           1           1           1           0
 AtZEff=  -0.0000000  -0.0000000  -0.0000000  -0.0000000  -0.0000000  -0.0000000  -0.0000000  -0.0000000  -0.0000000  -0.0000000
 NQMom=    0.0000000   0.0000000   0.0000000   0.0000000   0.0000000   0.0000000   0.0000000   0.0000000   0.0000000   0.0000000
 NMagM=    2.7928460   0.0000000   2.7928460   2.7928460   2.7928460   0.0000000   2.7928460   2.7928460   2.7928460   0.0000000
 AtZNuc=   1.0000000   6.0000000   1.0000000   1.0000000   1.0000000   6.0000000   1.0000000   1.0000000   1.0000000   6.0000000

  Atom        61          62          63          64          65          66          67          68          69          70
 IAtWgt=           1           1           1          12           1           1           1          12           1           1
 AtmWgt=   1.0078250   1.0078250   1.0078250  12.0000000   1.0078250   1.0078250   1.0078250  12.0000000   1.0078250   1.0078250
 NucSpn=           1           1           1           0           1           1           1           0           1           1
 AtZEff=  -0.0000000  -0.0000000  -0.0000000  -0.0000000  -0.0000000  -0.0000000  -0.0000000  -0.0000000  -0.0000000  -0.0000000
 NQMom=    0.0000000   0.0000000   0.0000000   0.0000000   0.0000000   0.0000000   0.0000000   0.0000000   0.0000000   0.0000000
 NMagM=    2.7928460   2.7928460   2.7928460   0.0000000   2.7928460   2.7928460   2.7928460   0.0000000   2.7928460   2.7928460
 AtZNuc=   1.0000000   1.0000000   1.0000000   6.0000000   1.0000000   1.0000000   1.0000000   6.0000000   1.0000000   1.0000000

  Atom        71          72          73          74          75          76          77          78          79          80
 IAtWgt=           1          14          14          12          16          16          16          16           1           1
 AtmWgt=   1.0078250  14.0030740  14.0030740  12.0000000  15.9949146  15.9949146  15.9949146  15.9949146   1.0078250   1.0078250
 NucSpn=           1           2           2           0           0           0           0           0           1           1
 AtZEff=  -0.0000000  -0.0000000  -0.0000000  -0.0000000  -0.0000000  -0.0000000  -0.0000000  -0.0000000  -0.0000000  -0.0000000
 NQMom=    0.0000000   2.0440000   2.0440000   0.0000000   0.0000000   0.0000000   0.0000000   0.0000000   0.0000000   0.0000000
 NMagM=    2.7928460   0.4037610   0.4037610   0.0000000   0.0000000   0.0000000   0.0000000   0.0000000   2.7928460   2.7928460
 AtZNuc=   1.0000000   7.0000000   7.0000000   6.0000000   8.0000000   8.0000000   8.0000000   8.0000000   1.0000000   1.0000000
 Leave Link  101 at Thu Mar 14 13:13:12 2024, MaxMem=  1073741824 cpu:              10.6 elap:               1.0
 (Enter /packages/apps/gaussian/g16/g16/l103.exe)

 GradGradGradGradGradGradGradGradGradGradGradGradGradGradGradGradGradGrad
 Berny optimization.
 Initialization pass.
                           ----------------------------
                           !    Initial Parameters    !
                           ! (Angstroms and Degrees)  !
 --------------------------                            --------------------------
 ! Name  Definition              Value          Derivative Info.                !
 --------------------------------------------------------------------------------
 ! R1    R(1,2)                  1.5236         calculate D2E/DX2 analytically  !
 ! R2    R(1,3)                  1.09           calculate D2E/DX2 analytically  !
 ! R3    R(1,4)                  1.0903         calculate D2E/DX2 analytically  !
 ! R4    R(1,5)                  1.0919         calculate D2E/DX2 analytically  !
 ! R5    R(2,6)                  1.5372         calculate D2E/DX2 analytically  !
 ! R6    R(2,7)                  1.0939         calculate D2E/DX2 analytically  !
 ! R7    R(2,8)                  1.0928         calculate D2E/DX2 analytically  !
 ! R8    R(6,9)                  1.5447         calculate D2E/DX2 analytically  !
 ! R9    R(6,10)                 1.0946         calculate D2E/DX2 analytically  !
 ! R10   R(6,32)                 1.5176         calculate D2E/DX2 analytically  !
 ! R11   R(9,11)                 1.0928         calculate D2E/DX2 analytically  !
 ! R12   R(9,12)                 1.0929         calculate D2E/DX2 analytically  !
 ! R13   R(9,13)                 1.5387         calculate D2E/DX2 analytically  !
 ! R14   R(13,14)                1.535          calculate D2E/DX2 analytically  !
 ! R15   R(13,15)                1.095          calculate D2E/DX2 analytically  !
 ! R16   R(13,22)                1.5139         calculate D2E/DX2 analytically  !
 ! R17   R(14,16)                1.0935         calculate D2E/DX2 analytically  !
 ! R18   R(14,17)                1.0929         calculate D2E/DX2 analytically  !
 ! R19   R(14,18)                1.5239         calculate D2E/DX2 analytically  !
 ! R20   R(18,19)                1.0899         calculate D2E/DX2 analytically  !
 ! R21   R(18,20)                1.0919         calculate D2E/DX2 analytically  !
 ! R22   R(18,21)                1.0906         calculate D2E/DX2 analytically  !
 ! R23   R(22,23)                1.3895         calculate D2E/DX2 analytically  !
 ! R24   R(22,24)                1.3936         calculate D2E/DX2 analytically  !
 ! R25   R(23,25)                1.3865         calculate D2E/DX2 analytically  !
 ! R26   R(23,26)                1.0831         calculate D2E/DX2 analytically  !
 ! R27   R(24,27)                1.384          calculate D2E/DX2 analytically  !
 ! R28   R(24,28)                1.0826         calculate D2E/DX2 analytically  !
 ! R29   R(25,29)                1.3895         calculate D2E/DX2 analytically  !
 ! R30   R(25,30)                1.0835         calculate D2E/DX2 analytically  !
 ! R31   R(27,29)                1.3948         calculate D2E/DX2 analytically  !
 ! R32   R(27,31)                1.0827         calculate D2E/DX2 analytically  !
 ! R33   R(29,45)                1.4995         calculate D2E/DX2 analytically  !
 ! R34   R(32,33)                1.391          calculate D2E/DX2 analytically  !
 ! R35   R(32,34)                1.3922         calculate D2E/DX2 analytically  !
 ! R36   R(33,35)                1.3852         calculate D2E/DX2 analytically  !
 ! R37   R(33,36)                1.0824         calculate D2E/DX2 analytically  !
 ! R38   R(34,37)                1.3853         calculate D2E/DX2 analytically  !
 ! R39   R(34,38)                1.0832         calculate D2E/DX2 analytically  !
 ! R40   R(35,39)                1.3934         calculate D2E/DX2 analytically  !
 ! R41   R(35,40)                1.0845         calculate D2E/DX2 analytically  !
 ! R42   R(37,39)                1.3912         calculate D2E/DX2 analytically  !
 ! R43   R(37,41)                1.0841         calculate D2E/DX2 analytically  !
 ! R44   R(39,42)                1.4966         calculate D2E/DX2 analytically  !
 ! R45   R(42,43)                1.0902         calculate D2E/DX2 analytically  !
 ! R46   R(42,44)                1.1065         calculate D2E/DX2 analytically  !
 ! R47   R(42,72)                1.5252         calculate D2E/DX2 analytically  !
 ! R48   R(44,76)                1.8138         calculate D2E/DX2 analytically  !
 ! R49   R(45,46)                1.0885         calculate D2E/DX2 analytically  !
 ! R50   R(45,47)                1.0986         calculate D2E/DX2 analytically  !
 ! R51   R(45,73)                1.5217         calculate D2E/DX2 analytically  !
 ! R52   R(47,76)                1.8988         calculate D2E/DX2 analytically  !
 ! R53   R(48,49)                1.0883         calculate D2E/DX2 analytically  !
 ! R54   R(48,50)                1.0874         calculate D2E/DX2 analytically  !
 ! R55   R(48,51)                1.0936         calculate D2E/DX2 analytically  !
 ! R56   R(48,72)                1.4948         calculate D2E/DX2 analytically  !
 ! R57   R(52,53)                1.0874         calculate D2E/DX2 analytically  !
 ! R58   R(52,54)                1.0875         calculate D2E/DX2 analytically  !
 ! R59   R(52,55)                1.0876         calculate D2E/DX2 analytically  !
 ! R60   R(52,72)                1.4807         calculate D2E/DX2 analytically  !
 ! R61   R(56,57)                1.0947         calculate D2E/DX2 analytically  !
 ! R62   R(56,58)                1.0858         calculate D2E/DX2 analytically  !
 ! R63   R(56,59)                1.0882         calculate D2E/DX2 analytically  !
 ! R64   R(56,72)                1.4953         calculate D2E/DX2 analytically  !
 ! R65   R(57,77)                1.905          calculate D2E/DX2 analytically  !
 ! R66   R(60,61)                1.0879         calculate D2E/DX2 analytically  !
 ! R67   R(60,62)                1.088          calculate D2E/DX2 analytically  !
 ! R68   R(60,63)                1.1032         calculate D2E/DX2 analytically  !
 ! R69   R(60,73)                1.4989         calculate D2E/DX2 analytically  !
 ! R70   R(63,75)                1.8885         calculate D2E/DX2 analytically  !
 ! R71   R(64,65)                1.0936         calculate D2E/DX2 analytically  !
 ! R72   R(64,66)                1.0864         calculate D2E/DX2 analytically  !
 ! R73   R(64,67)                1.0882         calculate D2E/DX2 analytically  !
 ! R74   R(64,73)                1.4917         calculate D2E/DX2 analytically  !
 ! R75   R(68,69)                1.0862         calculate D2E/DX2 analytically  !
 ! R76   R(68,70)                1.0872         calculate D2E/DX2 analytically  !
 ! R77   R(68,71)                1.0873         calculate D2E/DX2 analytically  !
 ! R78   R(68,73)                1.4816         calculate D2E/DX2 analytically  !
 ! R79   R(74,75)                1.2651         calculate D2E/DX2 analytically  !
 ! R80   R(74,76)                1.3256         calculate D2E/DX2 analytically  !
 ! R81   R(74,77)                1.2784         calculate D2E/DX2 analytically  !
 ! R82   R(76,80)                1.6177         calculate D2E/DX2 analytically  !
 ! R83   R(78,79)                0.959          calculate D2E/DX2 analytically  !
 ! R84   R(78,80)                1.0025         calculate D2E/DX2 analytically  !
 ! A1    A(2,1,3)              111.0593         calculate D2E/DX2 analytically  !
 ! A2    A(2,1,4)              111.2713         calculate D2E/DX2 analytically  !
 ! A3    A(2,1,5)              110.8602         calculate D2E/DX2 analytically  !
 ! A4    A(3,1,4)              108.0651         calculate D2E/DX2 analytically  !
 ! A5    A(3,1,5)              107.877          calculate D2E/DX2 analytically  !
 ! A6    A(4,1,5)              107.5556         calculate D2E/DX2 analytically  !
 ! A7    A(1,2,6)              113.6664         calculate D2E/DX2 analytically  !
 ! A8    A(1,2,7)              109.8166         calculate D2E/DX2 analytically  !
 ! A9    A(1,2,8)              109.5106         calculate D2E/DX2 analytically  !
 ! A10   A(6,2,7)              109.2811         calculate D2E/DX2 analytically  !
 ! A11   A(6,2,8)              108.1339         calculate D2E/DX2 analytically  !
 ! A12   A(7,2,8)              106.1469         calculate D2E/DX2 analytically  !
 ! A13   A(2,6,9)              110.7287         calculate D2E/DX2 analytically  !
 ! A14   A(2,6,10)             107.0919         calculate D2E/DX2 analytically  !
 ! A15   A(2,6,32)             111.4832         calculate D2E/DX2 analytically  !
 ! A16   A(9,6,10)             108.0933         calculate D2E/DX2 analytically  !
 ! A17   A(9,6,32)             111.8274         calculate D2E/DX2 analytically  !
 ! A18   A(10,6,32)            107.3826         calculate D2E/DX2 analytically  !
 ! A19   A(6,9,11)             109.4945         calculate D2E/DX2 analytically  !
 ! A20   A(6,9,12)             108.895          calculate D2E/DX2 analytically  !
 ! A21   A(6,9,13)             115.7887         calculate D2E/DX2 analytically  !
 ! A22   A(11,9,12)            105.9035         calculate D2E/DX2 analytically  !
 ! A23   A(11,9,13)            109.3458         calculate D2E/DX2 analytically  !
 ! A24   A(12,9,13)            106.9353         calculate D2E/DX2 analytically  !
 ! A25   A(9,13,14)            110.3443         calculate D2E/DX2 analytically  !
 ! A26   A(9,13,15)            106.8358         calculate D2E/DX2 analytically  !
 ! A27   A(9,13,22)            113.2776         calculate D2E/DX2 analytically  !
 ! A28   A(14,13,15)           107.3496         calculate D2E/DX2 analytically  !
 ! A29   A(14,13,22)           112.0041         calculate D2E/DX2 analytically  !
 ! A30   A(15,13,22)           106.648          calculate D2E/DX2 analytically  !
 ! A31   A(13,14,16)           109.0323         calculate D2E/DX2 analytically  !
 ! A32   A(13,14,17)           108.3781         calculate D2E/DX2 analytically  !
 ! A33   A(13,14,18)           113.6041         calculate D2E/DX2 analytically  !
 ! A34   A(16,14,17)           106.2146         calculate D2E/DX2 analytically  !
 ! A35   A(16,14,18)           109.7181         calculate D2E/DX2 analytically  !
 ! A36   A(17,14,18)           109.6212         calculate D2E/DX2 analytically  !
 ! A37   A(14,18,19)           111.1003         calculate D2E/DX2 analytically  !
 ! A38   A(14,18,20)           110.9326         calculate D2E/DX2 analytically  !
 ! A39   A(14,18,21)           111.1679         calculate D2E/DX2 analytically  !
 ! A40   A(19,18,20)           107.8297         calculate D2E/DX2 analytically  !
 ! A41   A(19,18,21)           107.965          calculate D2E/DX2 analytically  !
 ! A42   A(20,18,21)           107.693          calculate D2E/DX2 analytically  !
 ! A43   A(13,22,23)           120.1265         calculate D2E/DX2 analytically  !
 ! A44   A(13,22,24)           121.7625         calculate D2E/DX2 analytically  !
 ! A45   A(23,22,24)           118.0673         calculate D2E/DX2 analytically  !
 ! A46   A(22,23,25)           121.051          calculate D2E/DX2 analytically  !
 ! A47   A(22,23,26)           119.3902         calculate D2E/DX2 analytically  !
 ! A48   A(25,23,26)           119.5389         calculate D2E/DX2 analytically  !
 ! A49   A(22,24,27)           121.038          calculate D2E/DX2 analytically  !
 ! A50   A(22,24,28)           119.7649         calculate D2E/DX2 analytically  !
 ! A51   A(27,24,28)           119.0852         calculate D2E/DX2 analytically  !
 ! A52   A(23,25,29)           120.7963         calculate D2E/DX2 analytically  !
 ! A53   A(23,25,30)           119.4779         calculate D2E/DX2 analytically  !
 ! A54   A(29,25,30)           119.6935         calculate D2E/DX2 analytically  !
 ! A55   A(24,27,29)           120.6924         calculate D2E/DX2 analytically  !
 ! A56   A(24,27,31)           120.2401         calculate D2E/DX2 analytically  !
 ! A57   A(29,27,31)           118.9553         calculate D2E/DX2 analytically  !
 ! A58   A(25,29,27)           118.33           calculate D2E/DX2 analytically  !
 ! A59   A(25,29,45)           121.2159         calculate D2E/DX2 analytically  !
 ! A60   A(27,29,45)           120.2414         calculate D2E/DX2 analytically  !
 ! A61   A(6,32,33)            121.6212         calculate D2E/DX2 analytically  !
 ! A62   A(6,32,34)            120.2892         calculate D2E/DX2 analytically  !
 ! A63   A(33,32,34)           118.0565         calculate D2E/DX2 analytically  !
 ! A64   A(32,33,35)           121.3047         calculate D2E/DX2 analytically  !
 ! A65   A(32,33,36)           119.2402         calculate D2E/DX2 analytically  !
 ! A66   A(35,33,36)           119.317          calculate D2E/DX2 analytically  !
 ! A67   A(32,34,37)           120.8896         calculate D2E/DX2 analytically  !
 ! A68   A(32,34,38)           119.9517         calculate D2E/DX2 analytically  !
 ! A69   A(37,34,38)           119.1413         calculate D2E/DX2 analytically  !
 ! A70   A(33,35,39)           120.3292         calculate D2E/DX2 analytically  !
 ! A71   A(33,35,40)           121.0651         calculate D2E/DX2 analytically  !
 ! A72   A(39,35,40)           118.5539         calculate D2E/DX2 analytically  !
 ! A73   A(34,37,39)           120.7862         calculate D2E/DX2 analytically  !
 ! A74   A(34,37,41)           119.4989         calculate D2E/DX2 analytically  !
 ! A75   A(39,37,41)           119.671          calculate D2E/DX2 analytically  !
 ! A76   A(35,39,37)           118.5609         calculate D2E/DX2 analytically  !
 ! A77   A(35,39,42)           119.4971         calculate D2E/DX2 analytically  !
 ! A78   A(37,39,42)           121.7135         calculate D2E/DX2 analytically  !
 ! A79   A(39,42,43)           110.9043         calculate D2E/DX2 analytically  !
 ! A80   A(39,42,44)           109.1812         calculate D2E/DX2 analytically  !
 ! A81   A(39,42,72)           115.3317         calculate D2E/DX2 analytically  !
 ! A82   A(43,42,44)           108.9297         calculate D2E/DX2 analytically  !
 ! A83   A(43,42,72)           104.7628         calculate D2E/DX2 analytically  !
 ! A84   A(44,42,72)           107.4867         calculate D2E/DX2 analytically  !
 ! A85   A(29,45,46)           111.0628         calculate D2E/DX2 analytically  !
 ! A86   A(29,45,47)           110.2009         calculate D2E/DX2 analytically  !
 ! A87   A(29,45,73)           115.3402         calculate D2E/DX2 analytically  !
 ! A88   A(46,45,47)           108.6779         calculate D2E/DX2 analytically  !
 ! A89   A(46,45,73)           105.3459         calculate D2E/DX2 analytically  !
 ! A90   A(47,45,73)           105.8595         calculate D2E/DX2 analytically  !
 ! A91   A(49,48,50)           110.3405         calculate D2E/DX2 analytically  !
 ! A92   A(49,48,51)           111.5217         calculate D2E/DX2 analytically  !
 ! A93   A(49,48,72)           108.5203         calculate D2E/DX2 analytically  !
 ! A94   A(50,48,51)           111.3037         calculate D2E/DX2 analytically  !
 ! A95   A(50,48,72)           108.5783         calculate D2E/DX2 analytically  !
 ! A96   A(51,48,72)           106.4184         calculate D2E/DX2 analytically  !
 ! A97   A(53,52,54)           109.9429         calculate D2E/DX2 analytically  !
 ! A98   A(53,52,55)           109.8891         calculate D2E/DX2 analytically  !
 ! A99   A(53,52,72)           108.8464         calculate D2E/DX2 analytically  !
 ! A100  A(54,52,55)           109.8469         calculate D2E/DX2 analytically  !
 ! A101  A(54,52,72)           109.1282         calculate D2E/DX2 analytically  !
 ! A102  A(55,52,72)           109.1638         calculate D2E/DX2 analytically  !
 ! A103  A(57,56,58)           112.5459         calculate D2E/DX2 analytically  !
 ! A104  A(57,56,59)           111.1589         calculate D2E/DX2 analytically  !
 ! A105  A(57,56,72)           106.5476         calculate D2E/DX2 analytically  !
 ! A106  A(58,56,59)           110.1083         calculate D2E/DX2 analytically  !
 ! A107  A(58,56,72)           108.7956         calculate D2E/DX2 analytically  !
 ! A108  A(59,56,72)           107.4679         calculate D2E/DX2 analytically  !
 ! A109  A(56,57,77)           149.9836         calculate D2E/DX2 analytically  !
 ! A110  A(61,60,62)           110.1514         calculate D2E/DX2 analytically  !
 ! A111  A(61,60,63)           112.9992         calculate D2E/DX2 analytically  !
 ! A112  A(61,60,73)           108.1282         calculate D2E/DX2 analytically  !
 ! A113  A(62,60,63)           108.7921         calculate D2E/DX2 analytically  !
 ! A114  A(62,60,73)           108.0022         calculate D2E/DX2 analytically  !
 ! A115  A(63,60,73)           108.6378         calculate D2E/DX2 analytically  !
 ! A116  A(60,63,75)           158.3703         calculate D2E/DX2 analytically  !
 ! A117  A(65,64,66)           111.8304         calculate D2E/DX2 analytically  !
 ! A118  A(65,64,67)           109.638          calculate D2E/DX2 analytically  !
 ! A119  A(65,64,73)           108.9093         calculate D2E/DX2 analytically  !
 ! A120  A(66,64,67)           109.6835         calculate D2E/DX2 analytically  !
 ! A121  A(66,64,73)           108.7732         calculate D2E/DX2 analytically  !
 ! A122  A(67,64,73)           107.9168         calculate D2E/DX2 analytically  !
 ! A123  A(69,68,70)           109.7632         calculate D2E/DX2 analytically  !
 ! A124  A(69,68,71)           110.1742         calculate D2E/DX2 analytically  !
 ! A125  A(69,68,73)           109.5268         calculate D2E/DX2 analytically  !
 ! A126  A(70,68,71)           109.7649         calculate D2E/DX2 analytically  !
 ! A127  A(70,68,73)           108.9972         calculate D2E/DX2 analytically  !
 ! A128  A(71,68,73)           108.5888         calculate D2E/DX2 analytically  !
 ! A129  A(42,72,48)           106.5381         calculate D2E/DX2 analytically  !
 ! A130  A(42,72,52)           110.1598         calculate D2E/DX2 analytically  !
 ! A131  A(42,72,56)           112.1199         calculate D2E/DX2 analytically  !
 ! A132  A(48,72,52)           110.5985         calculate D2E/DX2 analytically  !
 ! A133  A(48,72,56)           107.9            calculate D2E/DX2 analytically  !
 ! A134  A(52,72,56)           109.4713         calculate D2E/DX2 analytically  !
 ! A135  A(45,73,60)           106.9036         calculate D2E/DX2 analytically  !
 ! A136  A(45,73,64)           110.4292         calculate D2E/DX2 analytically  !
 ! A137  A(45,73,68)           111.4395         calculate D2E/DX2 analytically  !
 ! A138  A(60,73,64)           108.6912         calculate D2E/DX2 analytically  !
 ! A139  A(60,73,68)           109.8124         calculate D2E/DX2 analytically  !
 ! A140  A(64,73,68)           109.497          calculate D2E/DX2 analytically  !
 ! A141  A(75,74,76)           118.8653         calculate D2E/DX2 analytically  !
 ! A142  A(75,74,77)           123.4202         calculate D2E/DX2 analytically  !
 ! A143  A(76,74,77)           117.7028         calculate D2E/DX2 analytically  !
 ! A144  A(63,75,74)           122.4001         calculate D2E/DX2 analytically  !
 ! A145  A(44,76,47)           124.4978         calculate D2E/DX2 analytically  !
 ! A146  A(44,76,74)           102.5876         calculate D2E/DX2 analytically  !
 ! A147  A(44,76,80)           132.3691         calculate D2E/DX2 analytically  !
 ! A148  A(47,76,74)            89.029          calculate D2E/DX2 analytically  !
 ! A149  A(47,76,80)            92.595          calculate D2E/DX2 analytically  !
 ! A150  A(74,76,80)           107.2032         calculate D2E/DX2 analytically  !
 ! A151  A(57,77,74)           147.6355         calculate D2E/DX2 analytically  !
 ! A152  A(79,78,80)           100.2194         calculate D2E/DX2 analytically  !
 ! A153  L(42,44,76,9,-1)      169.8566         calculate D2E/DX2 analytically  !
 ! A154  L(45,47,76,1,-1)      174.4313         calculate D2E/DX2 analytically  !
 ! A155  L(76,80,78,18,-1)     180.3038         calculate D2E/DX2 analytically  !
 ! A156  L(42,44,76,9,-2)      186.1709         calculate D2E/DX2 analytically  !
 ! A157  L(45,47,76,1,-2)      181.9877         calculate D2E/DX2 analytically  !
 ! A158  L(76,80,78,18,-2)     172.1512         calculate D2E/DX2 analytically  !
 ! D1    D(3,1,2,6)            177.1592         calculate D2E/DX2 analytically  !
 ! D2    D(3,1,2,7)            -60.0791         calculate D2E/DX2 analytically  !
 ! D3    D(3,1,2,8)             56.1075         calculate D2E/DX2 analytically  !
 ! D4    D(4,1,2,6)            -62.4107         calculate D2E/DX2 analytically  !
 ! D5    D(4,1,2,7)             60.351          calculate D2E/DX2 analytically  !
 ! D6    D(4,1,2,8)            176.5376         calculate D2E/DX2 analytically  !
 ! D7    D(5,1,2,6)             57.2419         calculate D2E/DX2 analytically  !
 ! D8    D(5,1,2,7)           -179.9964         calculate D2E/DX2 analytically  !
 ! D9    D(5,1,2,8)            -63.8098         calculate D2E/DX2 analytically  !
 ! D10   D(1,2,6,9)           -177.7254         calculate D2E/DX2 analytically  !
 ! D11   D(1,2,6,10)           -60.0948         calculate D2E/DX2 analytically  !
 ! D12   D(1,2,6,32)            57.0929         calculate D2E/DX2 analytically  !
 ! D13   D(7,2,6,9)             59.219          calculate D2E/DX2 analytically  !
 ! D14   D(7,2,6,10)           176.8495         calculate D2E/DX2 analytically  !
 ! D15   D(7,2,6,32)           -65.9627         calculate D2E/DX2 analytically  !
 ! D16   D(8,2,6,9)            -55.9061         calculate D2E/DX2 analytically  !
 ! D17   D(8,2,6,10)            61.7245         calculate D2E/DX2 analytically  !
 ! D18   D(8,2,6,32)           178.9122         calculate D2E/DX2 analytically  !
 ! D19   D(2,6,9,11)           -90.6267         calculate D2E/DX2 analytically  !
 ! D20   D(2,6,9,12)            24.7399         calculate D2E/DX2 analytically  !
 ! D21   D(2,6,9,13)           145.2252         calculate D2E/DX2 analytically  !
 ! D22   D(10,6,9,11)          152.3574         calculate D2E/DX2 analytically  !
 ! D23   D(10,6,9,12)          -92.2761         calculate D2E/DX2 analytically  !
 ! D24   D(10,6,9,13)           28.2093         calculate D2E/DX2 analytically  !
 ! D25   D(32,6,9,11)           34.3604         calculate D2E/DX2 analytically  !
 ! D26   D(32,6,9,12)          149.7269         calculate D2E/DX2 analytically  !
 ! D27   D(32,6,9,13)          -89.7877         calculate D2E/DX2 analytically  !
 ! D28   D(2,6,32,33)         -119.0208         calculate D2E/DX2 analytically  !
 ! D29   D(2,6,32,34)           63.1133         calculate D2E/DX2 analytically  !
 ! D30   D(9,6,32,33)          116.4115         calculate D2E/DX2 analytically  !
 ! D31   D(9,6,32,34)          -61.4544         calculate D2E/DX2 analytically  !
 ! D32   D(10,6,32,33)          -2.0094         calculate D2E/DX2 analytically  !
 ! D33   D(10,6,32,34)        -179.8752         calculate D2E/DX2 analytically  !
 ! D34   D(6,9,13,14)          176.7766         calculate D2E/DX2 analytically  !
 ! D35   D(6,9,13,15)          -66.833          calculate D2E/DX2 analytically  !
 ! D36   D(6,9,13,22)           50.2979         calculate D2E/DX2 analytically  !
 ! D37   D(11,9,13,14)          52.5514         calculate D2E/DX2 analytically  !
 ! D38   D(11,9,13,15)         168.9417         calculate D2E/DX2 analytically  !
 ! D39   D(11,9,13,22)         -73.9274         calculate D2E/DX2 analytically  !
 ! D40   D(12,9,13,14)         -61.6841         calculate D2E/DX2 analytically  !
 ! D41   D(12,9,13,15)          54.7063         calculate D2E/DX2 analytically  !
 ! D42   D(12,9,13,22)         171.8372         calculate D2E/DX2 analytically  !
 ! D43   D(9,13,14,16)         -64.6125         calculate D2E/DX2 analytically  !
 ! D44   D(9,13,14,17)          50.5929         calculate D2E/DX2 analytically  !
 ! D45   D(9,13,14,18)         172.6884         calculate D2E/DX2 analytically  !
 ! D46   D(15,13,14,16)        179.3178         calculate D2E/DX2 analytically  !
 ! D47   D(15,13,14,17)        -65.4768         calculate D2E/DX2 analytically  !
 ! D48   D(15,13,14,18)         56.6187         calculate D2E/DX2 analytically  !
 ! D49   D(22,13,14,16)         62.5755         calculate D2E/DX2 analytically  !
 ! D50   D(22,13,14,17)        177.7809         calculate D2E/DX2 analytically  !
 ! D51   D(22,13,14,18)        -60.1237         calculate D2E/DX2 analytically  !
 ! D52   D(9,13,22,23)        -115.3846         calculate D2E/DX2 analytically  !
 ! D53   D(9,13,22,24)          62.1627         calculate D2E/DX2 analytically  !
 ! D54   D(14,13,22,23)        119.0204         calculate D2E/DX2 analytically  !
 ! D55   D(14,13,22,24)        -63.4323         calculate D2E/DX2 analytically  !
 ! D56   D(15,13,22,23)          1.8562         calculate D2E/DX2 analytically  !
 ! D57   D(15,13,22,24)        179.4036         calculate D2E/DX2 analytically  !
 ! D58   D(13,14,18,19)       -178.3048         calculate D2E/DX2 analytically  !
 ! D59   D(13,14,18,20)        -58.3717         calculate D2E/DX2 analytically  !
 ! D60   D(13,14,18,21)         61.4338         calculate D2E/DX2 analytically  !
 ! D61   D(16,14,18,19)         59.3745         calculate D2E/DX2 analytically  !
 ! D62   D(16,14,18,20)        179.3076         calculate D2E/DX2 analytically  !
 ! D63   D(16,14,18,21)        -60.8869         calculate D2E/DX2 analytically  !
 ! D64   D(17,14,18,19)        -56.901          calculate D2E/DX2 analytically  !
 ! D65   D(17,14,18,20)         63.0321         calculate D2E/DX2 analytically  !
 ! D66   D(17,14,18,21)       -177.1624         calculate D2E/DX2 analytically  !
 ! D67   D(13,22,23,25)        176.3928         calculate D2E/DX2 analytically  !
 ! D68   D(13,22,23,26)         -1.9774         calculate D2E/DX2 analytically  !
 ! D69   D(24,22,23,25)         -1.244          calculate D2E/DX2 analytically  !
 ! D70   D(24,22,23,26)       -179.6143         calculate D2E/DX2 analytically  !
 ! D71   D(13,22,24,27)       -175.6532         calculate D2E/DX2 analytically  !
 ! D72   D(13,22,24,28)          0.4652         calculate D2E/DX2 analytically  !
 ! D73   D(23,22,24,27)          1.9428         calculate D2E/DX2 analytically  !
 ! D74   D(23,22,24,28)        178.0611         calculate D2E/DX2 analytically  !
 ! D75   D(22,23,25,29)          0.1625         calculate D2E/DX2 analytically  !
 ! D76   D(22,23,25,30)       -177.7657         calculate D2E/DX2 analytically  !
 ! D77   D(26,23,25,29)        178.5303         calculate D2E/DX2 analytically  !
 ! D78   D(26,23,25,30)          0.6022         calculate D2E/DX2 analytically  !
 ! D79   D(22,24,27,29)         -1.5697         calculate D2E/DX2 analytically  !
 ! D80   D(22,24,27,31)        174.5399         calculate D2E/DX2 analytically  !
 ! D81   D(28,24,27,29)       -177.7139         calculate D2E/DX2 analytically  !
 ! D82   D(28,24,27,31)         -1.6043         calculate D2E/DX2 analytically  !
 ! D83   D(23,25,29,27)          0.2569         calculate D2E/DX2 analytically  !
 ! D84   D(23,25,29,45)       -174.455          calculate D2E/DX2 analytically  !
 ! D85   D(30,25,29,27)        178.1806         calculate D2E/DX2 analytically  !
 ! D86   D(30,25,29,45)          3.4687         calculate D2E/DX2 analytically  !
 ! D87   D(24,27,29,25)          0.4386         calculate D2E/DX2 analytically  !
 ! D88   D(24,27,29,45)        175.2038         calculate D2E/DX2 analytically  !
 ! D89   D(31,27,29,25)       -175.7204         calculate D2E/DX2 analytically  !
 ! D90   D(31,27,29,45)         -0.9552         calculate D2E/DX2 analytically  !
 ! D91   D(25,29,45,46)         25.6274         calculate D2E/DX2 analytically  !
 ! D92   D(25,29,45,47)        146.1165         calculate D2E/DX2 analytically  !
 ! D93   D(25,29,45,73)        -94.1191         calculate D2E/DX2 analytically  !
 ! D94   D(27,29,45,46)       -148.9843         calculate D2E/DX2 analytically  !
 ! D95   D(27,29,45,47)        -28.4952         calculate D2E/DX2 analytically  !
 ! D96   D(27,29,45,73)         91.2693         calculate D2E/DX2 analytically  !
 ! D97   D(6,32,33,35)        -174.715          calculate D2E/DX2 analytically  !
 ! D98   D(6,32,33,36)           0.9829         calculate D2E/DX2 analytically  !
 ! D99   D(34,32,33,35)          3.1968         calculate D2E/DX2 analytically  !
 ! D100  D(34,32,33,36)        178.8947         calculate D2E/DX2 analytically  !
 ! D101  D(6,32,34,37)         176.3115         calculate D2E/DX2 analytically  !
 ! D102  D(6,32,34,38)          -2.1557         calculate D2E/DX2 analytically  !
 ! D103  D(33,32,34,37)         -1.6292         calculate D2E/DX2 analytically  !
 ! D104  D(33,32,34,38)        179.9036         calculate D2E/DX2 analytically  !
 ! D105  D(32,33,35,39)         -2.6219         calculate D2E/DX2 analytically  !
 ! D106  D(32,33,35,40)        174.7236         calculate D2E/DX2 analytically  !
 ! D107  D(36,33,35,39)       -178.3166         calculate D2E/DX2 analytically  !
 ! D108  D(36,33,35,40)         -0.971          calculate D2E/DX2 analytically  !
 ! D109  D(32,34,37,39)         -0.5174         calculate D2E/DX2 analytically  !
 ! D110  D(32,34,37,41)       -178.1014         calculate D2E/DX2 analytically  !
 ! D111  D(38,34,37,39)        177.9621         calculate D2E/DX2 analytically  !
 ! D112  D(38,34,37,41)          0.3781         calculate D2E/DX2 analytically  !
 ! D113  D(33,35,39,37)          0.4023         calculate D2E/DX2 analytically  !
 ! D114  D(33,35,39,42)        175.0062         calculate D2E/DX2 analytically  !
 ! D115  D(40,35,39,37)       -177.0091         calculate D2E/DX2 analytically  !
 ! D116  D(40,35,39,42)         -2.4053         calculate D2E/DX2 analytically  !
 ! D117  D(34,37,39,35)          1.1426         calculate D2E/DX2 analytically  !
 ! D118  D(34,37,39,42)       -173.3359         calculate D2E/DX2 analytically  !
 ! D119  D(41,37,39,35)        178.7225         calculate D2E/DX2 analytically  !
 ! D120  D(41,37,39,42)          4.2439         calculate D2E/DX2 analytically  !
 ! D121  D(35,39,42,43)       -154.9397         calculate D2E/DX2 analytically  !
 ! D122  D(35,39,42,44)        -34.9036         calculate D2E/DX2 analytically  !
 ! D123  D(35,39,42,72)         86.2052         calculate D2E/DX2 analytically  !
 ! D124  D(37,39,42,43)         19.4884         calculate D2E/DX2 analytically  !
 ! D125  D(37,39,42,44)        139.5245         calculate D2E/DX2 analytically  !
 ! D126  D(37,39,42,72)        -99.3667         calculate D2E/DX2 analytically  !
 ! D127  D(39,42,76,47)          2.6479         calculate D2E/DX2 analytically  !
 ! D128  D(39,42,76,74)        101.8775         calculate D2E/DX2 analytically  !
 ! D129  D(39,42,76,80)       -125.6923         calculate D2E/DX2 analytically  !
 ! D130  D(43,42,76,47)        120.0508         calculate D2E/DX2 analytically  !
 ! D131  D(43,42,76,74)       -140.7196         calculate D2E/DX2 analytically  !
 ! D132  D(43,42,76,80)         -8.2894         calculate D2E/DX2 analytically  !
 ! D133  D(72,42,76,47)       -124.4145         calculate D2E/DX2 analytically  !
 ! D134  D(72,42,76,74)        -25.185          calculate D2E/DX2 analytically  !
 ! D135  D(72,42,76,80)        107.2452         calculate D2E/DX2 analytically  !
 ! D136  D(39,42,72,48)       -165.446          calculate D2E/DX2 analytically  !
 ! D137  D(39,42,72,52)         74.5563         calculate D2E/DX2 analytically  !
 ! D138  D(39,42,72,56)        -47.62           calculate D2E/DX2 analytically  !
 ! D139  D(43,42,72,48)         72.3466         calculate D2E/DX2 analytically  !
 ! D140  D(43,42,72,52)        -47.6511         calculate D2E/DX2 analytically  !
 ! D141  D(43,42,72,56)       -169.8274         calculate D2E/DX2 analytically  !
 ! D142  D(44,42,72,48)        -43.4232         calculate D2E/DX2 analytically  !
 ! D143  D(44,42,72,52)       -163.421          calculate D2E/DX2 analytically  !
 ! D144  D(44,42,72,56)         74.4027         calculate D2E/DX2 analytically  !
 ! D145  D(29,45,76,44)        -33.1411         calculate D2E/DX2 analytically  !
 ! D146  D(29,45,76,74)       -137.2493         calculate D2E/DX2 analytically  !
 ! D147  D(29,45,76,80)        115.597          calculate D2E/DX2 analytically  !
 ! D148  D(46,45,76,44)         86.5946         calculate D2E/DX2 analytically  !
 ! D149  D(46,45,76,74)        -17.5136         calculate D2E/DX2 analytically  !
 ! D150  D(46,45,76,80)       -124.6674         calculate D2E/DX2 analytically  !
 ! D151  D(73,45,76,44)       -159.657          calculate D2E/DX2 analytically  !
 ! D152  D(73,45,76,74)         96.2348         calculate D2E/DX2 analytically  !
 ! D153  D(73,45,76,80)        -10.919          calculate D2E/DX2 analytically  !
 ! D154  D(29,45,73,60)        172.9483         calculate D2E/DX2 analytically  !
 ! D155  D(29,45,73,64)        -68.9777         calculate D2E/DX2 analytically  !
 ! D156  D(29,45,73,68)         52.9537         calculate D2E/DX2 analytically  !
 ! D157  D(46,45,73,60)         50.1071         calculate D2E/DX2 analytically  !
 ! D158  D(46,45,73,64)        168.1811         calculate D2E/DX2 analytically  !
 ! D159  D(46,45,73,68)        -69.8875         calculate D2E/DX2 analytically  !
 ! D160  D(47,45,73,60)        -64.9294         calculate D2E/DX2 analytically  !
 ! D161  D(47,45,73,64)         53.1446         calculate D2E/DX2 analytically  !
 ! D162  D(47,45,73,68)        175.0761         calculate D2E/DX2 analytically  !
 ! D163  D(49,48,72,42)       -173.9336         calculate D2E/DX2 analytically  !
 ! D164  D(49,48,72,52)        -54.2198         calculate D2E/DX2 analytically  !
 ! D165  D(49,48,72,56)         65.4902         calculate D2E/DX2 analytically  !
 ! D166  D(50,48,72,42)        -53.9779         calculate D2E/DX2 analytically  !
 ! D167  D(50,48,72,52)         65.736          calculate D2E/DX2 analytically  !
 ! D168  D(50,48,72,56)       -174.5541         calculate D2E/DX2 analytically  !
 ! D169  D(51,48,72,42)         65.9309         calculate D2E/DX2 analytically  !
 ! D170  D(51,48,72,52)       -174.3553         calculate D2E/DX2 analytically  !
 ! D171  D(51,48,72,56)        -54.6453         calculate D2E/DX2 analytically  !
 ! D172  D(53,52,72,42)        -58.9331         calculate D2E/DX2 analytically  !
 ! D173  D(53,52,72,48)       -176.4445         calculate D2E/DX2 analytically  !
 ! D174  D(53,52,72,56)         64.7951         calculate D2E/DX2 analytically  !
 ! D175  D(54,52,72,42)         61.0571         calculate D2E/DX2 analytically  !
 ! D176  D(54,52,72,48)        -56.4543         calculate D2E/DX2 analytically  !
 ! D177  D(54,52,72,56)       -175.2147         calculate D2E/DX2 analytically  !
 ! D178  D(55,52,72,42)       -178.8792         calculate D2E/DX2 analytically  !
 ! D179  D(55,52,72,48)         63.6095         calculate D2E/DX2 analytically  !
 ! D180  D(55,52,72,56)        -55.151          calculate D2E/DX2 analytically  !
 ! D181  D(58,56,57,77)       -134.8156         calculate D2E/DX2 analytically  !
 ! D182  D(59,56,57,77)        101.1397         calculate D2E/DX2 analytically  !
 ! D183  D(72,56,57,77)        -15.6539         calculate D2E/DX2 analytically  !
 ! D184  D(57,56,72,42)        -55.5518         calculate D2E/DX2 analytically  !
 ! D185  D(57,56,72,48)         61.4605         calculate D2E/DX2 analytically  !
 ! D186  D(57,56,72,52)       -178.1195         calculate D2E/DX2 analytically  !
 ! D187  D(58,56,72,42)         66.0251         calculate D2E/DX2 analytically  !
 ! D188  D(58,56,72,48)       -176.9626         calculate D2E/DX2 analytically  !
 ! D189  D(58,56,72,52)        -56.5426         calculate D2E/DX2 analytically  !
 ! D190  D(59,56,72,42)       -174.7777         calculate D2E/DX2 analytically  !
 ! D191  D(59,56,72,48)        -57.7654         calculate D2E/DX2 analytically  !
 ! D192  D(59,56,72,52)         62.6547         calculate D2E/DX2 analytically  !
 ! D193  D(56,57,77,74)         60.3425         calculate D2E/DX2 analytically  !
 ! D194  D(61,60,63,75)        156.0559         calculate D2E/DX2 analytically  !
 ! D195  D(62,60,63,75)         33.3889         calculate D2E/DX2 analytically  !
 ! D196  D(73,60,63,75)        -83.9523         calculate D2E/DX2 analytically  !
 ! D197  D(61,60,73,45)        168.9918         calculate D2E/DX2 analytically  !
 ! D198  D(61,60,73,64)         49.787          calculate D2E/DX2 analytically  !
 ! D199  D(61,60,73,68)        -69.9745         calculate D2E/DX2 analytically  !
 ! D200  D(62,60,73,45)        -71.8289         calculate D2E/DX2 analytically  !
 ! D201  D(62,60,73,64)        168.9663         calculate D2E/DX2 analytically  !
 ! D202  D(62,60,73,68)         49.2048         calculate D2E/DX2 analytically  !
 ! D203  D(63,60,73,45)         46.0149         calculate D2E/DX2 analytically  !
 ! D204  D(63,60,73,64)        -73.1899         calculate D2E/DX2 analytically  !
 ! D205  D(63,60,73,68)        167.0486         calculate D2E/DX2 analytically  !
 ! D206  D(60,63,75,74)         80.7776         calculate D2E/DX2 analytically  !
 ! D207  D(65,64,73,45)        -64.5198         calculate D2E/DX2 analytically  !
 ! D208  D(65,64,73,60)         52.4528         calculate D2E/DX2 analytically  !
 ! D209  D(65,64,73,68)        172.4105         calculate D2E/DX2 analytically  !
 ! D210  D(66,64,73,45)         57.5936         calculate D2E/DX2 analytically  !
 ! D211  D(66,64,73,60)        174.5662         calculate D2E/DX2 analytically  !
 ! D212  D(66,64,73,68)        -65.476          calculate D2E/DX2 analytically  !
 ! D213  D(67,64,73,45)        176.5261         calculate D2E/DX2 analytically  !
 ! D214  D(67,64,73,60)        -66.5013         calculate D2E/DX2 analytically  !
 ! D215  D(67,64,73,68)         53.4565         calculate D2E/DX2 analytically  !
 ! D216  D(69,68,73,45)        -65.6467         calculate D2E/DX2 analytically  !
 ! D217  D(69,68,73,60)        176.0912         calculate D2E/DX2 analytically  !
 ! D218  D(69,68,73,64)         56.8225         calculate D2E/DX2 analytically  !
 ! D219  D(70,68,73,45)         54.4544         calculate D2E/DX2 analytically  !
 ! D220  D(70,68,73,60)        -63.8076         calculate D2E/DX2 analytically  !
 ! D221  D(70,68,73,64)        176.9236         calculate D2E/DX2 analytically  !
 ! D222  D(71,68,73,45)        173.9997         calculate D2E/DX2 analytically  !
 ! D223  D(71,68,73,60)         55.7377         calculate D2E/DX2 analytically  !
 ! D224  D(71,68,73,64)        -63.5311         calculate D2E/DX2 analytically  !
 ! D225  D(76,74,75,63)         37.2684         calculate D2E/DX2 analytically  !
 ! D226  D(77,74,75,63)       -141.4596         calculate D2E/DX2 analytically  !
 ! D227  D(75,74,76,44)        172.1183         calculate D2E/DX2 analytically  !
 ! D228  D(75,74,76,47)        -62.6683         calculate D2E/DX2 analytically  !
 ! D229  D(75,74,76,80)         29.7477         calculate D2E/DX2 analytically  !
 ! D230  D(77,74,76,44)         -9.0808         calculate D2E/DX2 analytically  !
 ! D231  D(77,74,76,47)        116.1325         calculate D2E/DX2 analytically  !
 ! D232  D(77,74,76,80)       -151.4515         calculate D2E/DX2 analytically  !
 ! D233  D(75,74,77,57)        167.9699         calculate D2E/DX2 analytically  !
 ! D234  D(76,74,77,57)        -10.7719         calculate D2E/DX2 analytically  !
 ! D235  D(44,76,78,79)       -123.3327         calculate D2E/DX2 analytically  !
 ! D236  D(47,76,78,79)         91.9966         calculate D2E/DX2 analytically  !
 ! D237  D(74,76,78,79)          2.7989         calculate D2E/DX2 analytically  !
 --------------------------------------------------------------------------------
 Trust Radius=3.00D-01 FncErr=1.00D-07 GrdErr=1.00D-06 EigMax=2.50D+02 EigMin=1.00D-04
 Number of steps in this run=    480 maximum allowed number of steps=    480.
 GradGradGradGradGradGradGradGradGradGradGradGradGradGradGradGradGradGrad

 Leave Link  103 at Thu Mar 14 13:13:13 2024, MaxMem=  1073741824 cpu:               0.7 elap:               0.2
 (Enter /packages/apps/gaussian/g16/g16/l202.exe)
 Stoichiometry    C28H46N2O4
 Framework group  C1[X(C28H46N2O4)]
 Deg. of freedom   234
 Full point group                 C1      NOp   1
 Largest Abelian subgroup         C1      NOp   1
 Largest concise Abelian subgroup C1      NOp   1
                         Standard orientation:                         
 ---------------------------------------------------------------------
 Center     Atomic      Atomic             Coordinates (Angstroms)
 Number     Number       Type             X           Y           Z
 ---------------------------------------------------------------------
      1          6           0       -4.141373    3.371337   -1.955804
      2          6           0       -4.665216    2.458436   -0.854174
      3          1           0       -4.830607    4.194839   -2.142849
      4          1           0       -3.172330    3.795021   -1.690953
      5          1           0       -4.015744    2.820599   -2.890182
      6          6           0       -3.771582    1.236155   -0.588700
      7          1           0       -4.784658    3.026707    0.072820
      8          1           0       -5.662211    2.099300   -1.121091
      9          6           0       -4.392962    0.330076    0.497155
     10          1           0       -3.722677    0.664824   -1.521041
     11          1           0       -4.026903    0.635684    1.480451
     12          1           0       -5.473788    0.491199    0.516600
     13          6           0       -4.168300   -1.181372    0.316788
     14          6           0       -4.765476   -1.954669    1.500651
     15          1           0       -4.721209   -1.479373   -0.580136
     16          1           0       -4.223728   -1.686041    2.411741
     17          1           0       -5.795065   -1.618715    1.647522
     18          6           0       -4.742173   -3.467138    1.315636
     19          1           0       -5.201627   -3.973391    2.164465
     20          1           0       -5.288902   -3.758628    0.416585
     21          1           0       -3.720701   -3.836072    1.216598
     22          6           0       -2.719193   -1.546050    0.074130
     23          6           0       -2.334625   -2.106628   -1.137709
     24          6           0       -1.729660   -1.289715    1.021424
     25          6           0       -1.002498   -2.379491   -1.408768
     26          1           0       -3.085307   -2.308959   -1.891799
     27          6           0       -0.397406   -1.547303    0.749268
     28          1           0       -1.994155   -0.824439    1.962527
     29          6           0       -0.014529   -2.101927   -0.471916
     30          1           0       -0.726961   -2.782958   -2.375886
     31          1           0        0.369073   -1.262161    1.458746
     32          6           0       -2.354776    1.649724   -0.235546
     33          6           0       -1.267679    1.266932   -1.014450
     34          6           0       -2.106550    2.393821    0.914624
     35          6           0        0.031120    1.555503   -0.628936
     36          1           0       -1.437108    0.672619   -1.903091
     37          6           0       -0.811679    2.713357    1.289319
     38          1           0       -2.930539    2.709500    1.542805
     39          6           0        0.274423    2.289061    0.530506
     40          1           0        0.878471    1.182734   -1.193884
     41          1           0       -0.642441    3.267312    2.205658
     42          6           0        1.683724    2.494422    0.990451
     43          1           0        1.720048    2.672445    2.065386
     44          1           0        2.277985    1.590969    0.755940
     45          6           0        1.438180   -2.277581   -0.799234
     46          1           0        1.611647   -2.187049   -1.869982
     47          1           0        2.038574   -1.517988   -0.280085
     48          6           0        3.857742    3.509503    0.670913
     49          1           0        4.390794    4.398606    0.339599
     50          1           0        3.978251    3.374128    1.743076
     51          1           0        4.178140    2.620952    0.119756
     52          6           0        1.902691    4.949438    0.968698
     53          1           0        0.832400    5.020671    0.790478
     54          1           0        2.101025    4.942462    2.037928
     55          1           0        2.411926    5.790703    0.504181
     56          6           0        2.240856    3.739941   -1.111512
     57          1           0        2.592368    2.777441   -1.496645
     58          1           0        1.196123    3.924435   -1.342790
     59          1           0        2.855828    4.558676   -1.479897
     60          6           0        3.425186   -3.660173   -0.969279
     61          1           0        3.939905   -4.517167   -0.540261
     62          1           0        3.347421   -3.771494   -2.048775
     63          1           0        3.923725   -2.701734   -0.745848
     64          6           0        2.118882   -3.739523    1.078213
     65          1           0        2.815634   -2.986096    1.456075
     66          1           0        1.123392   -3.614185    1.494755
     67          1           0        2.492377   -4.734073    1.314100
     68          6           0        1.242110   -4.746996   -0.949601
     69          1           0        0.259398   -4.754624   -0.486842
     70          1           0        1.141109   -4.622766   -2.024989
     71          1           0        1.765210   -5.675555   -0.734262
     72          7           0        2.403790    3.689383    0.374043
     73          7           0        2.036542   -3.620445   -0.406452
     74          6           0        3.677371    0.062496   -0.585876
     75          8           0        4.422117   -0.892002   -0.952982
     76          8           0        2.967178   -0.070883    0.525419
     77          8           0        3.551412    1.150860   -1.244672
     78          8           0        4.336430   -1.731197    2.010994
     79          1           0        5.080921   -1.831615    1.414887
     80          1           0        3.795841   -1.053349    1.507784
 ---------------------------------------------------------------------
 Rotational constants (GHZ):           0.1323192           0.1041354           0.0664841
 Leave Link  202 at Thu Mar 14 13:13:13 2024, MaxMem=  1073741824 cpu:               1.0 elap:               0.3
 (Enter /packages/apps/gaussian/g16/g16/l301.exe)
 Standard basis: 6-311+G(2d,2p) (5D, 7F)
 Ernie: Thresh=  0.10000D-02 Tol=  0.10000D-05 Strict=F.
 There are  1400 symmetry adapted cartesian basis functions of A   symmetry.
 There are  1332 symmetry adapted basis functions of A   symmetry.
  1332 basis functions,  1934 primitive gaussians,  1400 cartesian basis functions
   130 alpha electrons      130 beta electrons
       nuclear repulsion energy      4024.4402983950 Hartrees.
 IExCor= 4639 DFT=T Ex+Corr=wB97XD ExCW=0 ScaHFX=  1.000000
 ScaDFX=  1.000000  1.000000  1.000000  1.000000 ScalE2=  1.000000  1.000000
 IRadAn=      5 IRanWt=     -1 IRanGd=            0 ICorTp=0 IEmpDi=121
 HFx  wShort=  0.000000 wLong=  0.200000 cFull=  0.222036 cShort=  0.000000 cLong=  0.777964
 DFx  wShort=  0.000000 wLong=  0.200000 cFull=  0.000000 cShort=  0.000000 cLong=  1.000000
 NAtoms=   80 NActive=   80 NUniq=   80 SFac= 1.00D+00 NAtFMM=   60 NAOKFM=T Big=T
 Integral buffers will be    131072 words long.
 Raffenetti 2 integral format.
 Two-electron integral symmetry is turned on.
 R6Disp:  Grimme-D2 Dispersion energy=       -0.0915671007 Hartrees.
 Nuclear repulsion after empirical dispersion term =     4024.3487312943 Hartrees.
 Leave Link  301 at Thu Mar 14 13:13:13 2024, MaxMem=  1073741824 cpu:               0.7 elap:               0.2
 (Enter /packages/apps/gaussian/g16/g16/l302.exe)
 NPDir=0 NMtPBC=     1 NCelOv=     1 NCel=       1 NClECP=     1 NCelD=      1
         NCelK=      1 NCelE2=     1 NClLst=     1 CellRange=     0.0.
 One-electron integrals computed using PRISM.
 One-electron integral symmetry used in STVInt
 NBasis=  1332 RedAO= T EigKep=  1.01D-06  NBF=  1332
 NBsUse=  1323 1.00D-06 EigRej=  8.58D-07 NBFU=  1323
 Precomputing XC quadrature grid using
 IXCGrd= 4 IRadAn=           5 IRanWt=          -1 IRanGd=           0 AccXCQ= 0.00D+00.
 Generated NRdTot=       0 NPtTot=           0 NUsed=           0 NTot=          32
 NSgBfM=  1345  1342  1342  1342  1345 MxSgAt=    80 MxSgA2=    80.
 Leave Link  302 at Thu Mar 14 13:13:17 2024, MaxMem=  1073741824 cpu:              67.5 elap:               4.1
 (Enter /packages/apps/gaussian/g16/g16/l303.exe)
 DipDrv:  MaxL=1.
 Leave Link  303 at Thu Mar 14 13:13:18 2024, MaxMem=  1073741824 cpu:               5.7 elap:               0.4
 (Enter /packages/apps/gaussian/g16/g16/l401.exe)
 ExpMin= 4.38D-02 ExpMax= 8.59D+03 ExpMxC= 1.30D+03 IAcc=3 IRadAn=         5 AccDes= 0.00D+00
 Harris functional with IExCor= 4639 and IRadAn=       5 diagonalized for initial guess.
 HarFok:  IExCor= 4639 AccDes= 0.00D+00 IRadAn=         5 IDoV= 1 UseB2=F ITyADJ=14
 ICtDFT=  3500011 ScaDFX=  1.000000  1.000000  1.000000  1.000000
 FoFCou: FMM=F IPFlag=           0 FMFlag=      100000 FMFlg1=        2001
         NFxFlg=           0 DoJE=T BraDBF=F KetDBF=T FulRan=T
         wScrn=  0.000000 ICntrl=       500 IOpCl=  0 I1Cent=   200000004 NGrid=           0
         NMat0=    1 NMatS0=      1 NMatT0=    0 NMatD0=    1 NMtDS0=    0 NMtDT0=    0
 Petite list used in FoFCou.
 Harris En= -1437.71550672468    
 JPrj=0 DoOrth=F DoCkMO=F.
 Leave Link  401 at Thu Mar 14 13:13:26 2024, MaxMem=  1073741824 cpu:             153.6 elap:               8.2
 (Enter /packages/apps/gaussian/g16/g16/l502.exe)
 Integral symmetry usage will be decided dynamically.
 Closed shell SCF:
 Using DIIS extrapolation, IDIIS=  1040.
 NGot=  1073741824 LenX=  1069780972 LenY=  1067819572
 Requested convergence on RMS density matrix=1.00D-08 within 128 cycles.
 Requested convergence on MAX density matrix=1.00D-06.
 Requested convergence on             energy=1.00D-06.
 No special actions if energy rises.
 Fock matrices will be formed incrementally for  20 cycles.

 Cycle   1  Pass 1  IDiag  1:
 FoFJK:  IHMeth= 1 ICntrl=       0 DoSepK=T KAlg= 0 I1Cent=           0 FoldK=F
 IRaf=         1 NMat=       1 IRICut=       1 DoRegI=T DoRafI=F ISym2E= 0 IDoP0=0 IntGTp=1.
 FoFCou: FMM=T IPFlag=           0 FMFlag=      100000 FMFlg1=        2001
         NFxFlg=           0 DoJE=T BraDBF=F KetDBF=F FulRan=T
         wScrn=  0.000000 ICntrl=       500 IOpCl=  0 I1Cent=           0 NGrid=           0
         NMat0=    1 NMatS0=      1 NMatT0=    0 NMatD0=    1 NMtDS0=    0 NMtDT0=    0
 Symmetry not used in FoFCou.
 FMM levels:  10  Number of levels for PrismC:   9
 E= -1504.51073265948    
 DIIS: error= 4.42D-02 at cycle   1 NSaved=   1.
 NSaved= 1 IEnMin= 1 EnMin= -1504.51073265948     IErMin= 1 ErrMin= 4.42D-02
 ErrMax= 4.42D-02  0.00D+00 EMaxC= 1.00D-01 BMatC= 3.29D+00 BMatP= 3.29D+00
 IDIUse=3 WtCom= 5.58D-01 WtEn= 4.42D-01
 Coeff-Com:  0.100D+01
 Coeff-En:   0.100D+01
 Coeff:      0.100D+01
 Gap=     0.267 Goal=   None    Shift=    0.000
 GapD=    0.267 DampG=1.000 DampE=0.500 DampFc=0.5000 IDamp=-1.
 Damping current iteration by 5.00D-01
 RMSDP=4.26D-03 MaxDP=8.00D-01              OVMax= 1.26D-01

 Cycle   2  Pass 1  IDiag  1:
 RMSU=  1.45D-03    CP:  8.93D-01
 E= -1504.76922994371     Delta-E=       -0.258497284227 Rises=F Damp=T
 DIIS: error= 2.12D-02 at cycle   2 NSaved=   2.
 NSaved= 2 IEnMin= 2 EnMin= -1504.76922994371     IErMin= 2 ErrMin= 2.12D-02
 ErrMax= 2.12D-02  0.00D+00 EMaxC= 1.00D-01 BMatC= 6.83D-01 BMatP= 3.29D+00
 IDIUse=3 WtCom= 7.88D-01 WtEn= 2.12D-01
 Coeff-Com: -0.574D+00 0.157D+01
 Coeff-En:   0.000D+00 0.100D+01
 Coeff:     -0.452D+00 0.145D+01
 Gap=     0.267 Goal=   None    Shift=    0.000
 RMSDP=2.91D-03 MaxDP=5.03D-01 DE=-2.58D-01 OVMax= 1.10D-01

 Cycle   3  Pass 1  IDiag  1:
 RMSU=  1.26D-03    CP:  7.25D-01  1.65D+00
 E= -1504.91971873528     Delta-E=       -0.150488791571 Rises=F Damp=F
 DIIS: error= 9.58D-03 at cycle   3 NSaved=   3.
 NSaved= 3 IEnMin= 3 EnMin= -1504.91971873528     IErMin= 3 ErrMin= 9.58D-03
 ErrMax= 9.58D-03  0.00D+00 EMaxC= 1.00D-01 BMatC= 1.77D-01 BMatP= 6.83D-01
 IDIUse=3 WtCom= 9.04D-01 WtEn= 9.58D-02
 Coeff-Com: -0.351D+00 0.751D+00 0.600D+00
 Coeff-En:   0.000D+00 0.000D+00 0.100D+01
 Coeff:     -0.317D+00 0.679D+00 0.638D+00
 Gap=     0.254 Goal=   None    Shift=    0.000
 RMSDP=6.91D-04 MaxDP=9.34D-02 DE=-1.50D-01 OVMax= 4.85D-02

 Cycle   4  Pass 1  IDiag  1:
 RMSU=  5.11D-04    CP:  7.29D-01  1.87D+00  7.37D-01
 E= -1505.05698339139     Delta-E=       -0.137264656106 Rises=F Damp=F
 DIIS: error= 1.54D-03 at cycle   4 NSaved=   4.
 NSaved= 4 IEnMin= 4 EnMin= -1505.05698339139     IErMin= 4 ErrMin= 1.54D-03
 ErrMax= 1.54D-03  0.00D+00 EMaxC= 1.00D-01 BMatC= 4.72D-03 BMatP= 1.77D-01
 IDIUse=3 WtCom= 9.85D-01 WtEn= 1.54D-02
 Coeff-Com: -0.101D+00 0.216D+00 0.261D+00 0.624D+00
 Coeff-En:   0.000D+00 0.000D+00 0.000D+00 0.100D+01
 Coeff:     -0.996D-01 0.213D+00 0.257D+00 0.630D+00
 Gap=     0.250 Goal=   None    Shift=    0.000
 RMSDP=1.71D-04 MaxDP=1.84D-02 DE=-1.37D-01 OVMax= 8.73D-03

 Cycle   5  Pass 1  IDiag  1:
 RMSU=  1.25D-04    CP:  7.26D-01  1.84D+00  7.74D-01  8.40D-01
 E= -1505.06069425842     Delta-E=       -0.003710867039 Rises=F Damp=F
 DIIS: error= 1.84D-04 at cycle   5 NSaved=   5.
 NSaved= 5 IEnMin= 5 EnMin= -1505.06069425842     IErMin= 5 ErrMin= 1.84D-04
 ErrMax= 1.84D-04  0.00D+00 EMaxC= 1.00D-01 BMatC= 1.51D-04 BMatP= 4.72D-03
 IDIUse=3 WtCom= 9.98D-01 WtEn= 1.84D-03
 Coeff-Com:  0.120D-01-0.257D-01 0.133D-01 0.230D+00 0.771D+00
 Coeff-En:   0.000D+00 0.000D+00 0.000D+00 0.000D+00 0.100D+01
 Coeff:      0.120D-01-0.257D-01 0.132D-01 0.229D+00 0.771D+00
 Gap=     0.249 Goal=   None    Shift=    0.000
 RMSDP=6.51D-05 MaxDP=9.63D-03 DE=-3.71D-03 OVMax= 3.21D-03

 Cycle   6  Pass 1  IDiag  1:
 RMSU=  3.49D-05    CP:  7.25D-01  1.85D+00  7.88D-01  9.35D-01  9.94D-01
 E= -1505.06081371669     Delta-E=       -0.000119458268 Rises=F Damp=F
 DIIS: error= 7.24D-05 at cycle   6 NSaved=   6.
 NSaved= 6 IEnMin= 6 EnMin= -1505.06081371669     IErMin= 6 ErrMin= 7.24D-05
 ErrMax= 7.24D-05  0.00D+00 EMaxC= 1.00D-01 BMatC= 3.80D-05 BMatP= 1.51D-04
 IDIUse=1 WtCom= 1.00D+00 WtEn= 0.00D+00
 Coeff-Com:  0.162D-01-0.347D-01-0.183D-01 0.574D-01 0.411D+00 0.569D+00
 Coeff:      0.162D-01-0.347D-01-0.183D-01 0.574D-01 0.411D+00 0.569D+00
 Gap=     0.249 Goal=   None    Shift=    0.000
 RMSDP=2.23D-05 MaxDP=2.31D-03 DE=-1.19D-04 OVMax= 1.20D-03

 Cycle   7  Pass 1  IDiag  1:
 RMSU=  1.13D-05    CP:  7.25D-01  1.85D+00  7.92D-01  9.61D-01  1.08D+00
                    CP:  8.51D-01
 E= -1505.06084847552     Delta-E=       -0.000034758824 Rises=F Damp=F
 DIIS: error= 1.31D-05 at cycle   7 NSaved=   7.
 NSaved= 7 IEnMin= 7 EnMin= -1505.06084847552     IErMin= 7 ErrMin= 1.31D-05
 ErrMax= 1.31D-05  0.00D+00 EMaxC= 1.00D-01 BMatC= 9.83D-07 BMatP= 3.80D-05
 IDIUse=1 WtCom= 1.00D+00 WtEn= 0.00D+00
 Coeff-Com:  0.318D-02-0.678D-02-0.553D-02-0.356D-02 0.405D-01 0.152D+00
 Coeff-Com:  0.820D+00
 Coeff:      0.318D-02-0.678D-02-0.553D-02-0.356D-02 0.405D-01 0.152D+00
 Coeff:      0.820D+00
 Gap=     0.249 Goal=   None    Shift=    0.000
 RMSDP=8.54D-06 MaxDP=1.20D-03 DE=-3.48D-05 OVMax= 2.60D-04

 Cycle   8  Pass 1  IDiag  1:
 RMSU=  3.19D-06    CP:  7.25D-01  1.85D+00  7.93D-01  9.73D-01  1.10D+00
                    CP:  9.20D-01  1.10D+00
 E= -1505.06084950583     Delta-E=       -0.000001030314 Rises=F Damp=F
 DIIS: error= 7.15D-06 at cycle   8 NSaved=   8.
 NSaved= 8 IEnMin= 8 EnMin= -1505.06084950583     IErMin= 8 ErrMin= 7.15D-06
 ErrMax= 7.15D-06  0.00D+00 EMaxC= 1.00D-01 BMatC= 2.01D-07 BMatP= 9.83D-07
 IDIUse=1 WtCom= 1.00D+00 WtEn= 0.00D+00
 Coeff-Com:  0.110D-03-0.199D-03-0.920D-03-0.630D-02-0.168D-01 0.169D-01
 Coeff-Com:  0.357D+00 0.651D+00
 Coeff:      0.110D-03-0.199D-03-0.920D-03-0.630D-02-0.168D-01 0.169D-01
 Coeff:      0.357D+00 0.651D+00
 Gap=     0.249 Goal=   None    Shift=    0.000
 RMSDP=2.31D-06 MaxDP=2.49D-04 DE=-1.03D-06 OVMax= 8.80D-05

 Cycle   9  Pass 1  IDiag  1:
 RMSU=  1.33D-06    CP:  7.25D-01  1.85D+00  7.94D-01  9.76D-01  1.11D+00
                    CP:  9.31D-01  1.18D+00  1.03D+00
 E= -1505.06084968269     Delta-E=       -0.000000176860 Rises=F Damp=F
 DIIS: error= 2.80D-06 at cycle   9 NSaved=   9.
 NSaved= 9 IEnMin= 9 EnMin= -1505.06084968269     IErMin= 9 ErrMin= 2.80D-06
 ErrMax= 2.80D-06  0.00D+00 EMaxC= 1.00D-01 BMatC= 2.89D-08 BMatP= 2.01D-07
 IDIUse=1 WtCom= 1.00D+00 WtEn= 0.00D+00
 Coeff-Com: -0.372D-03 0.804D-03 0.320D-03-0.254D-02-0.133D-01-0.124D-01
 Coeff-Com:  0.591D-01 0.299D+00 0.670D+00
 Coeff:     -0.372D-03 0.804D-03 0.320D-03-0.254D-02-0.133D-01-0.124D-01
 Coeff:      0.591D-01 0.299D+00 0.670D+00
 Gap=     0.249 Goal=   None    Shift=    0.000
 RMSDP=1.05D-06 MaxDP=1.14D-04 DE=-1.77D-07 OVMax= 4.65D-05

 Cycle  10  Pass 1  IDiag  1:
 RMSU=  4.68D-07    CP:  7.25D-01  1.85D+00  7.94D-01  9.77D-01  1.11D+00
                    CP:  9.38D-01  1.22D+00  1.16D+00  1.09D+00
 E= -1505.06084971557     Delta-E=       -0.000000032881 Rises=F Damp=F
 DIIS: error= 8.51D-07 at cycle  10 NSaved=  10.
 NSaved=10 IEnMin=10 EnMin= -1505.06084971557     IErMin=10 ErrMin= 8.51D-07
 ErrMax= 8.51D-07  0.00D+00 EMaxC= 1.00D-01 BMatC= 2.54D-09 BMatP= 2.89D-08
 IDIUse=1 WtCom= 1.00D+00 WtEn= 0.00D+00
 Coeff-Com: -0.129D-03 0.271D-03 0.215D-03-0.199D-04-0.205D-02-0.607D-02
 Coeff-Com: -0.287D-01 0.563D-03 0.211D+00 0.825D+00
 Coeff:     -0.129D-03 0.271D-03 0.215D-03-0.199D-04-0.205D-02-0.607D-02
 Coeff:     -0.287D-01 0.563D-03 0.211D+00 0.825D+00
 Gap=     0.249 Goal=   None    Shift=    0.000
 RMSDP=6.03D-07 MaxDP=8.37D-05 DE=-3.29D-08 OVMax= 2.44D-05

 Cycle  11  Pass 1  IDiag  1:
 RMSU=  1.60D-07    CP:  7.25D-01  1.85D+00  7.94D-01  9.78D-01  1.11D+00
                    CP:  9.39D-01  1.24D+00  1.22D+00  1.28D+00  1.25D+00
 E= -1505.06084972060     Delta-E=       -0.000000005032 Rises=F Damp=F
 DIIS: error= 4.31D-07 at cycle  11 NSaved=  11.
 NSaved=11 IEnMin=11 EnMin= -1505.06084972060     IErMin=11 ErrMin= 4.31D-07
 ErrMax= 4.31D-07  0.00D+00 EMaxC= 1.00D-01 BMatC= 4.64D-10 BMatP= 2.54D-09
 IDIUse=1 WtCom= 1.00D+00 WtEn= 0.00D+00
 Coeff-Com:  0.173D-05-0.565D-05 0.317D-04 0.309D-03 0.955D-03-0.698D-03
 Coeff-Com: -0.186D-01-0.415D-01-0.117D-01 0.314D+00 0.757D+00
 Coeff:      0.173D-05-0.565D-05 0.317D-04 0.309D-03 0.955D-03-0.698D-03
 Coeff:     -0.186D-01-0.415D-01-0.117D-01 0.314D+00 0.757D+00
 Gap=     0.249 Goal=   None    Shift=    0.000
 RMSDP=2.22D-07 MaxDP=2.74D-05 DE=-5.03D-09 OVMax= 1.31D-05

 Cycle  12  Pass 1  IDiag  1:
 RMSU=  7.04D-08    CP:  7.25D-01  1.85D+00  7.94D-01  9.78D-01  1.11D+00
                    CP:  9.39D-01  1.24D+00  1.24D+00  1.36D+00  1.42D+00
                    CP:  1.27D+00
 E= -1505.06084972157     Delta-E=       -0.000000000967 Rises=F Damp=F
 DIIS: error= 1.69D-07 at cycle  12 NSaved=  12.
 NSaved=12 IEnMin=12 EnMin= -1505.06084972157     IErMin=12 ErrMin= 1.69D-07
 ErrMax= 1.69D-07  0.00D+00 EMaxC= 1.00D-01 BMatC= 6.04D-11 BMatP= 4.64D-10
 IDIUse=1 WtCom= 1.00D+00 WtEn= 0.00D+00
 Coeff-Com:  0.167D-04-0.356D-04-0.197D-04 0.894D-04 0.546D-03 0.690D-03
 Coeff-Com:  0.389D-04-0.105D-01-0.370D-01-0.542D-01 0.206D+00 0.894D+00
 Coeff:      0.167D-04-0.356D-04-0.197D-04 0.894D-04 0.546D-03 0.690D-03
 Coeff:      0.389D-04-0.105D-01-0.370D-01-0.542D-01 0.206D+00 0.894D+00
 Gap=     0.249 Goal=   None    Shift=    0.000
 RMSDP=8.85D-08 MaxDP=9.58D-06 DE=-9.67D-10 OVMax= 8.57D-06

 Cycle  13  Pass 1  IDiag  1:
 RMSU=  2.37D-08    CP:  7.25D-01  1.85D+00  7.94D-01  9.78D-01  1.11D+00
                    CP:  9.39D-01  1.24D+00  1.24D+00  1.39D+00  1.50D+00
                    CP:  1.49D+00  1.29D+00
 E= -1505.06084972168     Delta-E=       -0.000000000114 Rises=F Damp=F
 DIIS: error= 9.08D-08 at cycle  13 NSaved=  13.
 NSaved=13 IEnMin=13 EnMin= -1505.06084972168     IErMin=13 ErrMin= 9.08D-08
 ErrMax= 9.08D-08  0.00D+00 EMaxC= 1.00D-01 BMatC= 1.08D-11 BMatP= 6.04D-11
 IDIUse=1 WtCom= 1.00D+00 WtEn= 0.00D+00
 Coeff-Com:  0.445D-05-0.921D-05-0.101D-04-0.199D-04 0.171D-04 0.281D-03
 Coeff-Com:  0.278D-02 0.348D-02-0.966D-02-0.664D-01-0.549D-01 0.277D+00
 Coeff-Com:  0.847D+00
 Coeff:      0.445D-05-0.921D-05-0.101D-04-0.199D-04 0.171D-04 0.281D-03
 Coeff:      0.278D-02 0.348D-02-0.966D-02-0.664D-01-0.549D-01 0.277D+00
 Coeff:      0.847D+00
 Gap=     0.249 Goal=   None    Shift=    0.000
 RMSDP=2.74D-08 MaxDP=2.11D-06 DE=-1.14D-10 OVMax= 3.69D-06

 Cycle  14  Pass 1  IDiag  1:
 RMSU=  1.00D-08    CP:  7.25D-01  1.85D+00  7.94D-01  9.78D-01  1.11D+00
                    CP:  9.39D-01  1.24D+00  1.24D+00  1.40D+00  1.52D+00
                    CP:  1.56D+00  1.47D+00  1.32D+00
 E= -1505.06084972168     Delta-E=        0.000000000002 Rises=F Damp=F
 DIIS: error= 3.25D-08 at cycle  14 NSaved=  14.
 NSaved=14 IEnMin=13 EnMin= -1505.06084972168     IErMin=14 ErrMin= 3.25D-08
[...]
 Alpha virt. eigenvalues --    1.35922   1.36128   1.36938   1.37445   1.37667
 Alpha virt. eigenvalues --    1.37995   1.38640   1.38881   1.39191   1.39476
 Alpha virt. eigenvalues --    1.39891   1.40160   1.40368   1.40540   1.40763
 Alpha virt. eigenvalues --    1.41368   1.41545   1.41752   1.42090   1.42297
 Alpha virt. eigenvalues --    1.42639   1.42831   1.43414   1.43466   1.43711
 Alpha virt. eigenvalues --    1.43790   1.44178   1.44551   1.44650   1.44902
 Alpha virt. eigenvalues --    1.45471   1.45756   1.45978   1.46028   1.46286
 Alpha virt. eigenvalues --    1.46629   1.46789   1.47423   1.47693   1.47987
 Alpha virt. eigenvalues --    1.48274   1.48506   1.48644   1.49019   1.49197
 Alpha virt. eigenvalues --    1.49389   1.49657   1.50042   1.50086   1.50484
 Alpha virt. eigenvalues --    1.50900   1.51102   1.51155   1.51576   1.52251
 Alpha virt. eigenvalues --    1.52378   1.52508   1.52801   1.53104   1.53495
 Alpha virt. eigenvalues --    1.53572   1.53811   1.54309   1.54937   1.55280
 Alpha virt. eigenvalues --    1.55551   1.55761   1.56348   1.56690   1.57026
 Alpha virt. eigenvalues --    1.57210   1.57336   1.57735   1.57957   1.58063
 Alpha virt. eigenvalues --    1.58361   1.58728   1.59159   1.59335   1.59684
 Alpha virt. eigenvalues --    1.59974   1.60233   1.60623   1.60848   1.61308
 Alpha virt. eigenvalues --    1.61525   1.61826   1.61987   1.62314   1.62437
 Alpha virt. eigenvalues --    1.62612   1.63068   1.63536   1.63752   1.64140
 Alpha virt. eigenvalues --    1.64260   1.64825   1.65174   1.65337   1.65632
 Alpha virt. eigenvalues --    1.65966   1.66268   1.66375   1.66899   1.67204
 Alpha virt. eigenvalues --    1.67752   1.68029   1.68392   1.69008   1.69080
 Alpha virt. eigenvalues --    1.69188   1.69675   1.69746   1.70464   1.70743
 Alpha virt. eigenvalues --    1.70806   1.71341   1.71536   1.71905   1.72124
 Alpha virt. eigenvalues --    1.72626   1.73256   1.73283   1.73461   1.73895
 Alpha virt. eigenvalues --    1.74576   1.74590   1.75312   1.75900   1.76407
 Alpha virt. eigenvalues --    1.76540   1.76949   1.77324   1.77619   1.78223
 Alpha virt. eigenvalues --    1.78997   1.79274   1.80376   1.80834   1.81060
 Alpha virt. eigenvalues --    1.81464   1.81664   1.82068   1.83016   1.83652
 Alpha virt. eigenvalues --    1.84170   1.85227   1.85315   1.85979   1.86100
 Alpha virt. eigenvalues --    1.86905   1.87276   1.87744   1.87924   1.89087
 Alpha virt. eigenvalues --    1.89365   1.89787   1.90602   1.90900   1.91448
 Alpha virt. eigenvalues --    1.92072   1.92720   1.93237   1.94082   1.94789
 Alpha virt. eigenvalues --    1.95199   1.95444   1.96536   1.96816   1.97546
 Alpha virt. eigenvalues --    1.97746   1.99397   1.99706   2.00430   2.00989
 Alpha virt. eigenvalues --    2.02244   2.02718   2.03150   2.04369   2.05272
 Alpha virt. eigenvalues --    2.05664   2.06825   2.07949   2.08535   2.09062
 Alpha virt. eigenvalues --    2.10163   2.11102   2.11624   2.12019   2.12568
 Alpha virt. eigenvalues --    2.12866   2.13452   2.14245   2.15444   2.15789
 Alpha virt. eigenvalues --    2.17092   2.17754   2.20110   2.21133   2.21748
 Alpha virt. eigenvalues --    2.23154   2.23732   2.24527   2.25130   2.27209
 Alpha virt. eigenvalues --    2.28294   2.29508   2.30628   2.32320   2.38329
 Alpha virt. eigenvalues --    2.42431   2.48228   2.50073   2.52834   2.53391
 Alpha virt. eigenvalues --    2.57096   2.58479   2.67466   2.72519   2.74490
 Alpha virt. eigenvalues --    2.76506   2.77924   2.84544   2.84805   2.85878
 Alpha virt. eigenvalues --    2.86296   2.87907   2.88781   2.90218   2.91473
 Alpha virt. eigenvalues --    2.92471   2.92523   2.93072   2.93860   2.95650
 Alpha virt. eigenvalues --    2.96205   2.96529   2.97250   2.97602   2.98224
 Alpha virt. eigenvalues --    2.99456   3.00001   3.00742   3.01444   3.01881
 Alpha virt. eigenvalues --    3.02495   3.03671   3.03926   3.04493   3.05032
 Alpha virt. eigenvalues --    3.05620   3.07237   3.07609   3.08521   3.08798
 Alpha virt. eigenvalues --    3.09836   3.11225   3.11559   3.11892   3.14248
 Alpha virt. eigenvalues --    3.15183   3.15947   3.16401   3.16676   3.17007
 Alpha virt. eigenvalues --    3.18420   3.18842   3.19664   3.19766   3.20237
 Alpha virt. eigenvalues --    3.21139   3.21850   3.22740   3.23260   3.23890
 Alpha virt. eigenvalues --    3.24077   3.24382   3.24511   3.25456   3.26845
 Alpha virt. eigenvalues --    3.27247   3.27880   3.28069   3.28626   3.29261
 Alpha virt. eigenvalues --    3.29787   3.30753   3.30935   3.31346   3.31378
 Alpha virt. eigenvalues --    3.32156   3.32319   3.33495   3.33660   3.34435
 Alpha virt. eigenvalues --    3.35021   3.35358   3.35707   3.36201   3.36274
 Alpha virt. eigenvalues --    3.37085   3.37424   3.37963   3.38452   3.38629
 Alpha virt. eigenvalues --    3.39639   3.40281   3.40816   3.41172   3.41250
 Alpha virt. eigenvalues --    3.41630   3.41826   3.43250   3.43504   3.44115
 Alpha virt. eigenvalues --    3.44368   3.44908   3.45498   3.46404   3.46805
 Alpha virt. eigenvalues --    3.47321   3.47533   3.48079   3.48326   3.49291
 Alpha virt. eigenvalues --    3.49556   3.49686   3.49937   3.50081   3.50556
 Alpha virt. eigenvalues --    3.50803   3.51559   3.51733   3.52251   3.52895
 Alpha virt. eigenvalues --    3.53437   3.53715   3.54202   3.54639   3.55047
 Alpha virt. eigenvalues --    3.55384   3.56066   3.56457   3.56607   3.56797
 Alpha virt. eigenvalues --    3.57835   3.57903   3.58509   3.59249   3.59926
 Alpha virt. eigenvalues --    3.60739   3.60785   3.61285   3.61514   3.61715
 Alpha virt. eigenvalues --    3.62517   3.62762   3.62816   3.63318   3.63736
 Alpha virt. eigenvalues --    3.64480   3.64680   3.65289   3.65500   3.65694
 Alpha virt. eigenvalues --    3.65935   3.66583   3.67002   3.67460   3.68101
 Alpha virt. eigenvalues --    3.68228   3.68554   3.68691   3.69457   3.69486
 Alpha virt. eigenvalues --    3.70049   3.70309   3.70528   3.70795   3.71629
 Alpha virt. eigenvalues --    3.71814   3.72148   3.72538   3.73034   3.73382
 Alpha virt. eigenvalues --    3.73762   3.74283   3.74558   3.75527   3.75604
 Alpha virt. eigenvalues --    3.75952   3.76381   3.76520   3.77315   3.78081
 Alpha virt. eigenvalues --    3.78349   3.78616   3.78879   3.79025   3.80028
 Alpha virt. eigenvalues --    3.80204   3.80360   3.80987   3.81685   3.81767
 Alpha virt. eigenvalues --    3.82053   3.82590   3.82859   3.83459   3.84317
 Alpha virt. eigenvalues --    3.84422   3.84950   3.85504   3.85774   3.86240
 Alpha virt. eigenvalues --    3.86595   3.87173   3.87468   3.87982   3.88408
 Alpha virt. eigenvalues --    3.88751   3.89242   3.90072   3.90304   3.90583
 Alpha virt. eigenvalues --    3.91282   3.91378   3.91649   3.92157   3.92522
 Alpha virt. eigenvalues --    3.93188   3.93266   3.93771   3.94410   3.94930
 Alpha virt. eigenvalues --    3.95650   3.96008   3.96446   3.96780   3.98096
 Alpha virt. eigenvalues --    3.98808   3.98965   3.99342   4.00122   4.00348
 Alpha virt. eigenvalues --    4.01179   4.01365   4.01813   4.01927   4.02578
 Alpha virt. eigenvalues --    4.02788   4.04180   4.04355   4.04528   4.04771
 Alpha virt. eigenvalues --    4.05674   4.06162   4.06332   4.07109   4.07887
 Alpha virt. eigenvalues --    4.07968   4.08035   4.08825   4.09015   4.09140
 Alpha virt. eigenvalues --    4.09625   4.10070   4.10308   4.10794   4.11460
 Alpha virt. eigenvalues --    4.11657   4.12034   4.12747   4.13229   4.13586
 Alpha virt. eigenvalues --    4.13842   4.14364   4.14464   4.14861   4.15055
 Alpha virt. eigenvalues --    4.15410   4.15756   4.16011   4.16649   4.17020
 Alpha virt. eigenvalues --    4.17574   4.17713   4.17991   4.18184   4.18758
 Alpha virt. eigenvalues --    4.19052   4.19251   4.19659   4.20450   4.20765
 Alpha virt. eigenvalues --    4.21211   4.21308   4.21839   4.21959   4.22725
 Alpha virt. eigenvalues --    4.22994   4.23181   4.23655   4.24261   4.24582
 Alpha virt. eigenvalues --    4.25191   4.25737   4.26138   4.26413   4.26902
 Alpha virt. eigenvalues --    4.27329   4.27791   4.28354   4.29496   4.29610
 Alpha virt. eigenvalues --    4.29751   4.30076   4.30525   4.31322   4.31720
 Alpha virt. eigenvalues --    4.32201   4.32724   4.33153   4.33357   4.33777
 Alpha virt. eigenvalues --    4.34599   4.34748   4.35133   4.35518   4.35561
 Alpha virt. eigenvalues --    4.36159   4.36746   4.36906   4.37813   4.38182
 Alpha virt. eigenvalues --    4.38565   4.39186   4.39746   4.39921   4.40549
 Alpha virt. eigenvalues --    4.40796   4.40913   4.41700   4.42230   4.42373
 Alpha virt. eigenvalues --    4.43358   4.43937   4.44230   4.45274   4.45841
 Alpha virt. eigenvalues --    4.46368   4.46862   4.46953   4.47812   4.48163
 Alpha virt. eigenvalues --    4.49116   4.49854   4.50341   4.50726   4.51001
 Alpha virt. eigenvalues --    4.51393   4.51797   4.52397   4.53209   4.54058
 Alpha virt. eigenvalues --    4.54571   4.55845   4.56735   4.57680   4.58257
 Alpha virt. eigenvalues --    4.59070   4.60111   4.61663   4.62477   4.63288
 Alpha virt. eigenvalues --    4.64152   4.65184   4.66469   4.67297   4.68261
 Alpha virt. eigenvalues --    4.70074   4.71740   4.71815   4.73567   4.75487
 Alpha virt. eigenvalues --    4.75853   4.76806   4.77570   4.79179   4.83066
 Alpha virt. eigenvalues --    4.83647   4.86958   4.87713   4.98861   5.00829
 Alpha virt. eigenvalues --    5.02647   5.03342   5.03432   5.03768   5.03917
 Alpha virt. eigenvalues --    5.05052   5.05645   5.06102   5.06696   5.11737
 Alpha virt. eigenvalues --    5.12438   5.12838   5.13793   5.14051   5.14456
 Alpha virt. eigenvalues --    5.15536   5.15848   5.16580   5.17202   5.17640
 Alpha virt. eigenvalues --    5.17913   5.18722   5.19255   5.19777   5.20705
 Alpha virt. eigenvalues --    5.21380   5.22280   5.22624   5.22916   5.23302
 Alpha virt. eigenvalues --    5.23792   5.25166   5.26123   5.26747   5.27949
 Alpha virt. eigenvalues --    5.33221   5.33813   5.34460   5.34688   5.36775
 Alpha virt. eigenvalues --    5.39959   5.41400   5.45934   5.47051   5.47523
 Alpha virt. eigenvalues --    5.48355   5.48647   5.48957   5.49945   5.52922
 Alpha virt. eigenvalues --    5.60291   5.62221   5.75823   5.77282   5.80892
 Alpha virt. eigenvalues --    5.82615   5.82867   5.86729   5.88077   5.89083
 Alpha virt. eigenvalues --    5.90653   6.25741   6.32485   6.34215   7.09189
 Alpha virt. eigenvalues --    7.11178   7.13211   7.15185   7.18078   7.20978
 Alpha virt. eigenvalues --    7.22419   7.25462   7.30470   7.35711   7.39697
 Alpha virt. eigenvalues --    7.44468   7.49650   7.53571   7.55420   7.62740
 Alpha virt. eigenvalues --    7.65620   7.68902   7.72702   7.78341  23.89636
 Alpha virt. eigenvalues --   23.92054  24.04326  24.05059  24.08213  24.09065
 Alpha virt. eigenvalues --   24.10133  24.14528  24.16338  24.18060  24.19261
 Alpha virt. eigenvalues --   24.19299  24.20674  24.21279  24.21454  24.21995
 Alpha virt. eigenvalues --   24.22484  24.23035  24.23723  24.32741  24.33041
 Alpha virt. eigenvalues --   24.34190  24.35175  24.35897  24.38793  24.42840
 Alpha virt. eigenvalues --   24.46613  24.48574  35.61276  35.62545  50.20925
 Alpha virt. eigenvalues --   50.30807  50.34951  50.35447
          Condensed to atoms (all electrons):
 Mulliken charges:
               1
     1  C   -0.441025
     2  C   -0.275911
     3  H    0.121703
     4  H    0.125605
     5  H    0.114856
     6  C    0.144521
     7  H    0.125341
     8  H    0.119771
     9  C   -0.402840
    10  H    0.109391
    11  H    0.136244
    12  H    0.119855
    13  C   -0.002753
    14  C   -0.166457
    15  H    0.120277
    16  H    0.127285
    17  H    0.113098
    18  C   -0.466122
    19  H    0.122059
    20  H    0.111553
    21  H    0.124003
    22  C    0.351641
    23  C   -0.202112
    24  C   -0.377737
    25  C   -0.211170
    26  H    0.126906
    27  C   -0.323738
    28  H    0.132185
    29  C   -0.123924
    30  H    0.130384
    31  H    0.187774
    32  C    0.556333
    33  C   -0.293563
    34  C   -0.333222
    35  C   -0.181254
    36  H    0.130668
    37  C   -0.259771
    38  H    0.132381
    39  C   -0.129373
    40  H    0.185744
    41  H    0.131202
    42  C   -0.358640
    43  H    0.156849
    44  H    0.392928
    45  C   -0.336398
    46  H    0.191256
    47  H    0.300807
    48  C   -0.172603
    49  H    0.130306
    50  H    0.144084
    51  H    0.229314
    52  C   -0.186214
    53  H    0.176978
    54  H    0.153600
    55  H    0.149340
    56  C   -0.370789
    57  H    0.275875
    58  H    0.154783
    59  H    0.147934
    60  C   -0.195198
    61  H    0.135651
    62  H    0.140427
    63  H    0.252254
    64  C   -0.298334
    65  H    0.287961
    66  H    0.165310
    67  H    0.149165
    68  C   -0.211318
    69  H    0.176920
    70  H    0.164603
    71  H    0.163030
    72  N   -0.122537
    73  N   -0.107401
    74  C    0.821415
    75  O   -0.685420
    76  O   -0.931309
    77  O   -0.800517
    78  O   -0.652570
    79  H    0.232399
    80  H    0.426249
 Sum of Mulliken charges =  -0.00000
 Mulliken charges with hydrogens summed into heavy atoms:
               1
     1  C   -0.078861
     2  C   -0.030799
     6  C    0.253912
     9  C   -0.146742
    13  C    0.117525
    14  C    0.073927
    18  C   -0.108506
    22  C    0.351641
    23  C   -0.075205
    24  C   -0.245552
    25  C   -0.080785
    27  C   -0.135964
    29  C   -0.123924
    32  C    0.556333
    33  C   -0.162895
    34  C   -0.200840
    35  C    0.004490
    37  C   -0.128569
    39  C   -0.129373
    42  C    0.191137
    45  C    0.155664
    48  C    0.331101
    52  C    0.293703
    56  C    0.207802
    60  C    0.333134
    64  C    0.304102
    68  C    0.293236
    72  N   -0.122537
    73  N   -0.107401
    74  C    0.821415
    75  O   -0.685420
    76  O   -0.931309
    77  O   -0.800517
    78  O    0.006079
 Electronic spatial extent (au):  <R**2>=          16977.5341
 Charge=              0.0000 electrons
 Dipole moment (field-independent basis, Debye):
    X=             -9.7615    Y=              1.0091    Z=              0.9047  Tot=              9.8551
 Quadrupole moment (field-independent basis, Debye-Ang):
   XX=           -249.0659   YY=           -140.6146   ZZ=           -215.2024
   XY=             10.7717   XZ=              6.0010   YZ=             19.6734
 Traceless Quadrupole moment (field-independent basis, Debye-Ang):
   XX=            -47.4382   YY=             61.0130   ZZ=            -13.5748
   XY=             10.7717   XZ=              6.0010   YZ=             19.6734
 Octapole moment (field-independent basis, Debye-Ang**2):
  XXX=           -196.7233  YYY=              8.5745  ZZZ=             -9.3654  XYY=            196.7014
  XXY=             49.3783  XXZ=             29.4495  XZZ=            -40.0224  YZZ=              5.9432
  YYZ=             -1.1622  XYZ=             41.6671
 Hexadecapole moment (field-independent basis, Debye-Ang**3):
 XXXX=         -12566.7504 YYYY=          -7837.1960 ZZZZ=          -1787.7489 XXXY=            199.9530
 XXXZ=            195.9306 YYYX=             58.8804 YYYZ=            212.9269 ZZZX=            -43.5080
 ZZZY=            118.7261 XXYY=          -3087.6956 XXZZ=          -2517.5360 YYZZ=          -1748.1066
 XXYZ=            162.1605 YYXZ=            -17.8271 ZZXY=             70.5634
 N-N= 4.024465637848D+03 E-N=-1.155555062361D+04  KE= 1.498850476894D+03
 No NMR shielding tensors so no spin-rotation constants.
 Leave Link  601 at Fri Mar 15 06:58:14 2024, MaxMem=  1073741824 cpu:              49.0 elap:               5.9
 (Enter /packages/apps/gaussian/g16/g16/l9999.exe)
 1\1\GINC-C033\FOpt\RwB97XD\6-311+G(2d,2p)\C28H46N2O4\MDTURNE9\15-Mar-2
 024\0\\#p opt=calcfc wb97xd/6-311+g(2d,2p)\\CARBONATE FROM NAKIE High\
 \0,1\C,-4.1410366691,3.3726507849,-1.9550853008\C,-4.6651805892,2.4592
 474066,-0.8540445943\H,-4.829963919,4.196553804,-2.1415281829\H,-3.171
 8242327,3.7958183186,-1.6900346975\H,-4.0156955226,2.8225296988,-2.889
 8593211\C,-3.7719673084,1.2365016568,-0.5892355624\H,-4.7845203803,3.0
 269642253,0.073301146\H,-5.662274742,2.100546418,-1.1212185489\C,-4.39
 37425182,0.3300723551,0.4960437575\H,-3.7232765672,0.6657037017,-1.521
 9245334\H,-4.0282010112,0.6354020606,1.479617923\H,-5.4745945205,0.491
 1584731,0.5150558786\C,-4.1689993802,-1.1813095522,0.3153522955\C,-4.7
 670236359,-1.9549246724,1.4985714552\H,-4.7213462483,-1.4790328017,-0.
 5820173791\H,-4.2260806055,-1.6863654626,2.4101597846\H,-5.7967904908,
 -1.6191601613,1.6446712267\C,-4.743297647,-3.4673338495,1.3133120453\H
 ,-5.2031414642,-3.9738349758,2.161786766\H,-5.2894575072,-3.7588104287
 ,0.4139167362\H,-3.7216972741,-3.8360506658,1.214807273\C,-2.719760287
 6,-1.5460135094,0.0735382368\C,-2.3345880647,-2.1069696074,-1.13793137
 27\C,-1.7306990801,-1.2893650186,1.0212268649\C,-1.0023293791,-2.37982
 55394,-1.408293385\H,-3.0849255987,-2.3094649912,-1.892343829\C,-0.398
 300534,-1.5468783732,0.7497210451\H,-1.995664602,-0.8237171182,1.96202
 78492\C,-0.0148068025,-2.1018515907,-0.4711011159\H,-0.7262934868,-2.7
 835375313,-2.3751826273\H,0.3677887101,-1.261338363,1.459461699\C,-2.3
 550206322,1.649339619,-0.2358467972\C,-1.2681361987,1.2670478077,-1.01
 52977811\C,-2.1064601756,2.3923055553,0.9149742886\C,0.0307957835,1.55
 51386059,-0.6298546509\H,-1.4378980482,0.673678195,-1.9045127532\C,-0.
 8114612049,2.7111989711,1.289734437\H,-2.9302990539,2.7074711199,1.543
 6397538\C,0.2744178433,2.2875544305,0.5302517428\H,0.8779822438,1.1830
 784412,-1.1955271347\H,-0.6419304932,3.2642339926,2.2065952229\C,1.683
 7704214,2.4926289578,0.9900941841\H,1.7202902486,2.6697882782,2.065185
 3782\H,2.2782656603,1.5894943049,0.754905181\C,1.4380051119,-2.2773562
 666,-0.7979507117\H,1.6116116064,-2.1879072004,-1.8687757126\H,2.03819
 52751,-1.5170442202,-0.279591461\C,3.8577830723,3.5074438155,0.6699853
 954\H,4.3908463169,4.3969249269,0.3397498165\H,3.9791138817,3.37014566
 1,1.741805152\H,4.1774098168,2.6197166871,0.1170779293\C,1.9034516244,
 4.9475620618,0.9715266746\H,0.8329861965,5.0192392277,0.7945158481\H,2
 .1028608686,4.9391044853,2.0405424198\H,2.4123561057,5.7893891367,0.50
 76753742\C,2.2394200759,3.7410455608,-1.1106617708\H,2.5902437642,2.77
 9015565,-1.4975470483\H,1.1945680519,3.9263070128,-1.3407747049\H,2.85
 44280814,4.5600763827,-1.4783427473\C,3.4249283625,-3.6599501825,-0.96
 77818559\H,3.9402892726,-4.5161440618,-0.537986576\H,3.3460685737,-3.7
 72918739,-2.0470198248\H,3.9234267128,-2.7010193178,-0.7465022666\C,2.
 1206977361,-3.7363346692,1.0810630093\H,2.8186060025,-2.9829570389,1.4
 567898271\H,1.1257887956,-3.6095004428,1.4985243116\H,2.4936791218,-4.
 7307896709,1.3181543845\C,1.2419841565,-4.746982378,-0.9443284032\H,0.
 2597512509,-4.7540474828,-0.4805458309\H,1.1397961316,-4.6243295392,-2
 .0197853701\H,1.7654497338,-5.6751587528,-0.7282200466\N,2.4036483374,
 3.6882314441,0.3746602087\N,2.0368340621,-3.6195635846,-0.4036886908\C
 ,3.6764041086,0.0629543567,-0.590379219\O,4.4197857814,-0.8914734933,-
 0.9601674599\O,2.9700289073,-0.070674787,0.5233598328\O,3.5479731624,1
 .1514042337,-1.2485286155\O,4.3431782161,-1.7300108834,2.0058387569\H,
 5.0870019058,-1.8312806584,1.4091549843\H,3.8017767836,-1.0526941579,1
 .5028377877\\Version=ES64L-G16RevA.03\State=1-A\HF=-1505.0608499\RMSD=
 9.015e-09\RMSF=3.481e-07\Dipole=-3.8404084,0.3976232,0.3559205\Quadrup
 ole=-35.2665668,45.3590737,-10.0925069,8.0215757,4.4639502,14.6259603\
 PG=C01 [X(C28H46N2O4)]\\@


 CONFIDENCE: THAT QUIET ASSURED FEELING YOU HAVE
 JUST BEFORE YOU FALL FLAT ON YOUR FACE.
 Job cpu time:      14 days 14 hours 12 minutes 57.8 seconds.
 Elapsed time:       0 days 17 hours 44 minutes 57.6 seconds.
 File lengths (MBytes):  RWF=  32053 Int=      0 D2E=      0 Chk=    142 Scr=      1
 Normal termination of Gaussian 16 at Fri Mar 15 06:58:14 2024.
