 Entering Gaussian System, Link 0=g16
 Input=2water.gjf
 Output=2water.log
 Initial command:
 /packages/apps/gaussian/g16/g16/l1.exe "/scratch/mdturne9/3-5-methyl/geo/Gau-2963338.inp" -scrdir="/scratch/mdturne9/3-5-methyl/geo/"
 Entering Link 1 = /packages/apps/gaussian/g16/g16/l1.exe PID=   2963340.
  
 Copyright (c) 1988,1990,1992,1993,1995,1998,2003,2009,2016,
            Gaussian, Inc.  All Rights Reserved.
  
 This is part of the Gaussian(R) 16 program.  It is based on
 the Gaussian(R) 09 system (copyright 2009, Gaussian, Inc.),
 the Gaussian(R) 03 system (copyright 2003, Gaussian, Inc.),
 the Gaussian(R) 98 system (copyright 1998, Gaussian, Inc.),
 the Gaussian(R) 94 system (copyright 1995, Gaussian, Inc.),
 the Gaussian 92(TM) system (copyright 1992, Gaussian, Inc.),
 the Gaussian 90(TM) system (copyright 1990, Gaussian, Inc.),
 the Gaussian 88(TM) system (copyright 1988, Gaussian, Inc.),
 the Gaussian 86(TM) system (copyright 1986, Carnegie Mellon
 University), and the Gaussian 82(TM) system (copyright 1983,
 Carnegie Mellon University). Gaussian is a federally registered
 trademark of Gaussian, Inc.
  
 This software contains proprietary and confidential information,
 including trade secrets, belonging to Gaussian, Inc.
  
 This software is provided under written license and may be
 used, copied, transmitted, or stored only in accord with that
 written license.
  
 The following legend is applicable only to US Government
 contracts under FAR:
  
                    RESTRICTED RIGHTS LEGEND
  
 Use, reproduction and disclosure by the US Government is
 subject to restrictions as set forth in subparagraphs (a)
 and (c) of the Commercial Computer Software - Restricted
 Rights clause in FAR 52.227-19.
  
 Gaussian, Inc.
 340 Quinnipiac St., Bldg. 40, Wallingford CT 06492
  
  
 ---------------------------------------------------------------
 Warning -- This program may not be used in any manner that
 competes with the business of Gaussian, Inc. or will provide
 assistance to any competitor of Gaussian, Inc.  The licensee
 of this program is prohibited from giving any competitor of
 Gaussian, Inc. access to this program.  By using this program,
 the user acknowledges that Gaussian, Inc. is engaged in the
 business of creating and licensing software in the field of
 computational chemistry and represents and warrants to the
 licensee that it is not a competitor of Gaussian, Inc. and that
 it will not use this program in any manner prohibited above.
 ---------------------------------------------------------------
  

 Cite this work as:
 Gaussian 16, Revision A.03,
 M. J. Frisch, G. W. Trucks, H. B. Schlegel, G. E. Scuseria, 
 M. A. Robb, J. R. Cheeseman, G. Scalmani, V. Barone, 
 G. A. Petersson, H. Nakatsuji, X. Li, M. Caricato, A. V. Marenich, 
 J. Bloino, B. G. Janesko, R. Gomperts, B. Mennucci, H. P. Hratchian, 
 J. V. Ortiz, A. F. Izmaylov, J. L. Sonnenberg, D. Williams-Young, 
 F. Ding, F. Lipparini, F. Egidi, J. Goings, B. Peng, A. Petrone, 
 T. Henderson, D. Ranasinghe, V. G. Zakrzewski, J. Gao, N. Rega, 
 G. Zheng, W. Liang, M. Hada, M. Ehara, K. Toyota, R. Fukuda, 
 J. Hasegawa, M. Ishida, T. Nakajima, Y. Honda, O. Kitao, H. Nakai, 
 T. Vreven, K. Throssell, J. A. Montgomery, Jr., J. E. Peralta, 
 F. Ogliaro, M. J. Bearpark, J. J. Heyd, E. N. Brothers, K. N. Kudin, 
 V. N. Staroverov, T. A. Keith, R. Kobayashi, J. Normand, 
 K. Raghavachari, A. P. Rendell, J. C. Burant, S. S. Iyengar, 
 J. Tomasi, M. Cossi, J. M. Millam, M. Klene, C. Adamo, R. Cammi, 
 J. W. Ochterski, R. L. Martin, K. Morokuma, O. Farkas, 
 J. B. Foresman, and D. J. Fox, Gaussian, Inc., Wallingford CT, 2016.
 
 ******************************************
 Gaussian 16:  ES64L-G16RevA.03 25-Dec-2016
                14-Mar-2024 
 ******************************************
 %nprocshared=20
 Will use up to   20 processors via shared memory.
 %mem=8GB
 %chk=2water.chk
 -----------------------------------
 #p opt=calcfc wb97xd/6-311+g(2d,2p)
 -----------------------------------
 1/10=4,18=20,19=15,26=3,38=1/1,3;
 2/9=110,12=2,17=6,18=5,40=1/2;
 3/5=4,6=6,7=212,11=2,25=1,30=1,71=2,74=-58,140=1/1,2,3;
 4//1;
 5/5=2,38=5/2;
 8/6=4,10=90,11=11/1;
 11/6=1,8=1,9=11,15=111,16=1/1,2,10;
 10/6=1,13=1/2;
 6/7=2,8=2,9=2,10=2,28=1/1;
 7/10=1,18=20,25=1/1,2,3,16;
 1/10=4,18=20,19=15,26=3/3(2);
 2/9=110/2;
 99//99;
 2/9=110/2;
 3/5=4,6=6,7=212,11=2,25=1,30=1,71=1,74=-58/1,2,3;
 4/5=5,16=3,69=1/1;
 5/5=2,38=5/2;
 7//1,2,3,16;
 1/18=20,19=15,26=3/3(-5);
 2/9=110/2;
 6/7=2,8=2,9=2,10=2,19=2,28=1/1;
 99/9=1/99;
 Leave Link    1 at Thu Mar 14 13:15:11 2024, MaxMem=  1073741824 cpu:               4.1 elap:               0.3
 (Enter /packages/apps/gaussian/g16/g16/l101.exe)
 -----------
 carb2water2
 -----------
 Symbolic Z-matrix:
 Charge =  0 Multiplicity = 1
 C                    -4.71296   3.63111   0.78513 
 C                    -4.80452   2.17151   1.21313 
 H                    -5.18936   4.28251   1.5177 
 H                    -3.67531   3.94801   0.67769 
 H                    -5.20911   3.78849  -0.17487 
 C                    -4.20442   1.18476   0.19653 
 H                    -4.3001    2.03748   2.17418 
 H                    -5.85171   1.90471   1.37546 
 C                    -4.48323  -0.25924   0.64958 
 H                    -4.73089   1.33284  -0.75248 
 H                    -4.01637  -0.43817   1.62217 
 H                    -5.56025  -0.33348   0.82098 
 C                    -4.08444  -1.38585  -0.32243 
 C                    -4.85051  -2.67505   0.01431 
 H                    -4.38912  -1.07989  -1.32896 
 H                    -4.60837  -2.98126   1.03584 
 H                    -5.91959  -2.44975   0.00961 
 C                    -4.56859  -3.82266  -0.94779 
 H                    -5.16663  -4.69878  -0.6973 
 H                    -4.80662  -3.53717  -1.97457 
 H                    -3.518    -4.11284  -0.92029 
 C                    -2.58693  -1.61803  -0.35388 
 C                    -1.85146  -1.36191  -1.50325 
 C                    -1.89928  -2.02758   0.78687 
 C                    -0.46845  -1.44668  -1.49772 
 H                    -2.36245  -1.03522  -2.39995 
 C                    -0.51753  -2.10107   0.80456 
 H                    -2.44485  -2.2322    1.69989 
 C                     0.21658  -1.79849  -0.3412 
 H                     0.08835  -1.18254  -2.38886 
 H                     0.01017  -2.32283   1.72546 
 C                    -2.74118   1.49015  -0.05287 
 C                    -2.32049   2.0205   -1.26677 
 C                    -1.77751   1.23969   0.92121 
 C                    -0.97605   2.25969  -1.5137 
 H                    -3.05049   2.22218  -2.04118 
 C                    -0.43372   1.45325   0.6758 
 H                    -2.07282   0.81665   1.8725 
 C                    -0.01679   1.97086  -0.55019 
 H                    -0.67023   2.63998  -2.48152 
 H                     0.32097   1.17805   1.4051 
 C                     1.45012   2.10766  -0.82857 
 H                     2.01414   1.36898  -0.25911 
 H                     1.67663   2.00347  -1.88788 
 C                     1.71172  -1.70444  -0.29283 
 H                     2.08987  -1.06465  -1.08737 
 H                     2.03069  -1.30438   0.66464 
 C                     3.51847   3.37282  -0.73916 
 H                     3.97994   4.30911  -0.43251 
 H                     3.94453   2.50434  -0.21764 
 H                     3.6159    3.23504  -1.8137 
 C                     1.92703   3.62632   1.07239 
 H                     0.87576   3.76435   1.30954 
 H                     2.31442   2.71908   1.55361 
 H                     2.49066   4.51481   1.34816 
 C                     1.42777   4.56736  -1.12056 
 H                     1.55067   4.42193  -2.1914 
 H                     0.37107   4.60261  -0.87133 
 H                     1.9139    5.49084  -0.81509 
 C                     3.92592  -2.70223  -0.50832 
 H                     4.46695  -3.64201  -0.60035 
 H                     4.09682  -2.06583  -1.37253 
 H                     4.19596  -2.15388   0.40397 
 C                     2.1992   -3.91044   0.71006 
 H                     2.39818  -3.35427   1.62328 
 H                     1.15859  -4.2213    0.69063 
 H                     2.84823  -4.77903   0.62846 
 C                     2.05829  -3.69412  -1.71152 
 H                     0.99827  -3.92861  -1.67313 
 H                     2.26035  -3.02298  -2.54272 
 H                     2.64143  -4.6055   -1.81982 
 N                     2.06225   3.43765  -0.40474 
 N                     2.46035  -3.01971  -0.45466 
 C                     3.59457   0.17436   1.32136 
 O                     3.99217  -0.9082    1.87613 
 O                     2.53418   0.77274   1.73499 
 O                     4.22428   0.63764   0.28515 
 O                     3.69473   0.20069  -2.20836 
 H                     4.539     0.21128  -2.65641 
 H                     3.91779   0.341    -1.23579 
 O                     1.86349  -1.73409   3.17636 
 H                     2.75807  -1.47645   2.81378 
 H                     1.45652  -0.86405   3.16477 
 
 Add virtual bond connecting atoms H80        and O77        Dist= 2.99D+00.
 Add virtual bond connecting atoms H82        and O75        Dist= 3.12D+00.
 Add virtual bond connecting atoms O75        and H63        Dist= 3.66D+00.
 Add virtual bond connecting atoms O76        and H54        Dist= 3.72D+00.
 Add virtual bond connecting atoms O77        and H50        Dist= 3.69D+00.
 ITRead=  0  0  0  0  0  0  0  0  0  0  0  0  0  0  0  0  0  0  0  0
 ITRead=  0  0  0  0  0  0  0  0  0  0  0  0  0  0  0  0  0  0  0  0
 ITRead=  0  0  0  0  0  0  0  0  0  0  0  0  0  0  0  0  0  0  0  0
 ITRead=  0  0  0  0  0  0  0  0  0  0  0  0  0  0  0  0  0  0  0  0
 ITRead=  0  0  0
 MicOpt= -1 -1 -1 -1 -1 -1 -1 -1 -1 -1 -1 -1 -1 -1 -1 -1 -1 -1 -1 -1
 MicOpt= -1 -1 -1 -1 -1 -1 -1 -1 -1 -1 -1 -1 -1 -1 -1 -1 -1 -1 -1 -1
 MicOpt= -1 -1 -1 -1 -1 -1 -1 -1 -1 -1 -1 -1 -1 -1 -1 -1 -1 -1 -1 -1
 MicOpt= -1 -1 -1 -1 -1 -1 -1 -1 -1 -1 -1 -1 -1 -1 -1 -1 -1 -1 -1 -1
 MicOpt= -1 -1 -1
 NAtoms=     83 NQM=       83 NQMF=       0 NMMI=      0 NMMIF=      0
                NMic=       0 NMicF=      0.
                    Isotopes and Nuclear Properties:
 (Nuclear quadrupole moments (NQMom) in fm**2, nuclear magnetic moments (NMagM)
  in nuclear magnetons)

  Atom         1           2           3           4           5           6           7           8           9          10
 IAtWgt=          12          12           1           1           1          12           1           1          12           1
 AtmWgt=  12.0000000  12.0000000   1.0078250   1.0078250   1.0078250  12.0000000   1.0078250   1.0078250  12.0000000   1.0078250
 NucSpn=           0           0           1           1           1           0           1           1           0           1
 AtZEff=  -0.0000000  -0.0000000  -0.0000000  -0.0000000  -0.0000000  -0.0000000  -0.0000000  -0.0000000  -0.0000000  -0.0000000
 NQMom=    0.0000000   0.0000000   0.0000000   0.0000000   0.0000000   0.0000000   0.0000000   0.0000000   0.0000000   0.0000000
 NMagM=    0.0000000   0.0000000   2.7928460   2.7928460   2.7928460   0.0000000   2.7928460   2.7928460   0.0000000   2.7928460
 AtZNuc=   6.0000000   6.0000000   1.0000000   1.0000000   1.0000000   6.0000000   1.0000000   1.0000000   6.0000000   1.0000000

  Atom        11          12          13          14          15          16          17          18          19          20
 IAtWgt=           1           1          12          12           1           1           1          12           1           1
 AtmWgt=   1.0078250   1.0078250  12.0000000  12.0000000   1.0078250   1.0078250   1.0078250  12.0000000   1.0078250   1.0078250
 NucSpn=           1           1           0           0           1           1           1           0           1           1
 AtZEff=  -0.0000000  -0.0000000  -0.0000000  -0.0000000  -0.0000000  -0.0000000  -0.0000000  -0.0000000  -0.0000000  -0.0000000
 NQMom=    0.0000000   0.0000000   0.0000000   0.0000000   0.0000000   0.0000000   0.0000000   0.0000000   0.0000000   0.0000000
 NMagM=    2.7928460   2.7928460   0.0000000   0.0000000   2.7928460   2.7928460   2.7928460   0.0000000   2.7928460   2.7928460
 AtZNuc=   1.0000000   1.0000000   6.0000000   6.0000000   1.0000000   1.0000000   1.0000000   6.0000000   1.0000000   1.0000000

  Atom        21          22          23          24          25          26          27          28          29          30
 IAtWgt=           1          12          12          12          12           1          12           1          12           1
 AtmWgt=   1.0078250  12.0000000  12.0000000  12.0000000  12.0000000   1.0078250  12.0000000   1.0078250  12.0000000   1.0078250
 NucSpn=           1           0           0           0           0           1           0           1           0           1
 AtZEff=  -0.0000000  -0.0000000  -0.0000000  -0.0000000  -0.0000000  -0.0000000  -0.0000000  -0.0000000  -0.0000000  -0.0000000
 NQMom=    0.0000000   0.0000000   0.0000000   0.0000000   0.0000000   0.0000000   0.0000000   0.0000000   0.0000000   0.0000000
 NMagM=    2.7928460   0.0000000   0.0000000   0.0000000   0.0000000   2.7928460   0.0000000   2.7928460   0.0000000   2.7928460
 AtZNuc=   1.0000000   6.0000000   6.0000000   6.0000000   6.0000000   1.0000000   6.0000000   1.0000000   6.0000000   1.0000000

  Atom        31          32          33          34          35          36          37          38          39          40
 IAtWgt=           1          12          12          12          12           1          12           1          12           1
 AtmWgt=   1.0078250  12.0000000  12.0000000  12.0000000  12.0000000   1.0078250  12.0000000   1.0078250  12.0000000   1.0078250
 NucSpn=           1           0           0           0           0           1           0           1           0           1
 AtZEff=  -0.0000000  -0.0000000  -0.0000000  -0.0000000  -0.0000000  -0.0000000  -0.0000000  -0.0000000  -0.0000000  -0.0000000
 NQMom=    0.0000000   0.0000000   0.0000000   0.0000000   0.0000000   0.0000000   0.0000000   0.0000000   0.0000000   0.0000000
 NMagM=    2.7928460   0.0000000   0.0000000   0.0000000   0.0000000   2.7928460   0.0000000   2.7928460   0.0000000   2.7928460
 AtZNuc=   1.0000000   6.0000000   6.0000000   6.0000000   6.0000000   1.0000000   6.0000000   1.0000000   6.0000000   1.0000000

  Atom        41          42          43          44          45          46          47          48          49          50
 IAtWgt=           1          12           1           1          12           1           1          12           1           1
 AtmWgt=   1.0078250  12.0000000   1.0078250   1.0078250  12.0000000   1.0078250   1.0078250  12.0000000   1.0078250   1.0078250
 NucSpn=           1           0           1           1           0           1           1           0           1           1
 AtZEff=  -0.0000000  -0.0000000  -0.0000000  -0.0000000  -0.0000000  -0.0000000  -0.0000000  -0.0000000  -0.0000000  -0.0000000
 NQMom=    0.0000000   0.0000000   0.0000000   0.0000000   0.0000000   0.0000000   0.0000000   0.0000000   0.0000000   0.0000000
 NMagM=    2.7928460   0.0000000   2.7928460   2.7928460   0.0000000   2.7928460   2.7928460   0.0000000   2.7928460   2.7928460
 AtZNuc=   1.0000000   6.0000000   1.0000000   1.0000000   6.0000000   1.0000000   1.0000000   6.0000000   1.0000000   1.0000000

  Atom        51          52          53          54          55          56          57          58          59          60
 IAtWgt=           1          12           1           1           1          12           1           1           1          12
 AtmWgt=   1.0078250  12.0000000   1.0078250   1.0078250   1.0078250  12.0000000   1.0078250   1.0078250   1.0078250  12.0000000
 NucSpn=           1           0           1           1           1           0           1           1           1           0
 AtZEff=  -0.0000000  -0.0000000  -0.0000000  -0.0000000  -0.0000000  -0.0000000  -0.0000000  -0.0000000  -0.0000000  -0.0000000
 NQMom=    0.0000000   0.0000000   0.0000000   0.0000000   0.0000000   0.0000000   0.0000000   0.0000000   0.0000000   0.0000000
 NMagM=    2.7928460   0.0000000   2.7928460   2.7928460   2.7928460   0.0000000   2.7928460   2.7928460   2.7928460   0.0000000
 AtZNuc=   1.0000000   6.0000000   1.0000000   1.0000000   1.0000000   6.0000000   1.0000000   1.0000000   1.0000000   6.0000000

  Atom        61          62          63          64          65          66          67          68          69          70
 IAtWgt=           1           1           1          12           1           1           1          12           1           1
 AtmWgt=   1.0078250   1.0078250   1.0078250  12.0000000   1.0078250   1.0078250   1.0078250  12.0000000   1.0078250   1.0078250
 NucSpn=           1           1           1           0           1           1           1           0           1           1
 AtZEff=  -0.0000000  -0.0000000  -0.0000000  -0.0000000  -0.0000000  -0.0000000  -0.0000000  -0.0000000  -0.0000000  -0.0000000
 NQMom=    0.0000000   0.0000000   0.0000000   0.0000000   0.0000000   0.0000000   0.0000000   0.0000000   0.0000000   0.0000000
 NMagM=    2.7928460   2.7928460   2.7928460   0.0000000   2.7928460   2.7928460   2.7928460   0.0000000   2.7928460   2.7928460
 AtZNuc=   1.0000000   1.0000000   1.0000000   6.0000000   1.0000000   1.0000000   1.0000000   6.0000000   1.0000000   1.0000000

  Atom        71          72          73          74          75          76          77          78          79          80
 IAtWgt=           1          14          14          12          16          16          16          16           1           1
 AtmWgt=   1.0078250  14.0030740  14.0030740  12.0000000  15.9949146  15.9949146  15.9949146  15.9949146   1.0078250   1.0078250
 NucSpn=           1           2           2           0           0           0           0           0           1           1
 AtZEff=  -0.0000000  -0.0000000  -0.0000000  -0.0000000  -0.0000000  -0.0000000  -0.0000000  -0.0000000  -0.0000000  -0.0000000
 NQMom=    0.0000000   2.0440000   2.0440000   0.0000000   0.0000000   0.0000000   0.0000000   0.0000000   0.0000000   0.0000000
 NMagM=    2.7928460   0.4037610   0.4037610   0.0000000   0.0000000   0.0000000   0.0000000   0.0000000   2.7928460   2.7928460
 AtZNuc=   1.0000000   7.0000000   7.0000000   6.0000000   8.0000000   8.0000000   8.0000000   8.0000000   1.0000000   1.0000000

  Atom        81          82          83
 IAtWgt=          16           1           1
 AtmWgt=  15.9949146   1.0078250   1.0078250
 NucSpn=           0           1           1
 AtZEff=  -0.0000000  -0.0000000  -0.0000000
 NQMom=    0.0000000   0.0000000   0.0000000
 NMagM=    0.0000000   2.7928460   2.7928460
 AtZNuc=   8.0000000   1.0000000   1.0000000
 Leave Link  101 at Thu Mar 14 13:15:12 2024, MaxMem=  1073741824 cpu:               3.1 elap:               0.3
 (Enter /packages/apps/gaussian/g16/g16/l103.exe)

 GradGradGradGradGradGradGradGradGradGradGradGradGradGradGradGradGradGrad
 Berny optimization.
 Initialization pass.
                           ----------------------------
                           !    Initial Parameters    !
                           ! (Angstroms and Degrees)  !
 --------------------------                            --------------------------
 ! Name  Definition              Value          Derivative Info.                !
 --------------------------------------------------------------------------------
 ! R1    R(1,2)                  1.5238         calculate D2E/DX2 analytically  !
 ! R2    R(1,3)                  1.0899         calculate D2E/DX2 analytically  !
 ! R3    R(1,4)                  1.0903         calculate D2E/DX2 analytically  !
 ! R4    R(1,5)                  1.092          calculate D2E/DX2 analytically  !
 ! R5    R(2,6)                  1.5386         calculate D2E/DX2 analytically  !
 ! R6    R(2,7)                  1.0936         calculate D2E/DX2 analytically  !
 ! R7    R(2,8)                  1.0928         calculate D2E/DX2 analytically  !
 ! R8    R(6,9)                  1.5389         calculate D2E/DX2 analytically  !
 ! R9    R(6,10)                 1.0953         calculate D2E/DX2 analytically  !
 ! R10   R(6,32)                 1.5154         calculate D2E/DX2 analytically  !
 ! R11   R(9,11)                 1.0936         calculate D2E/DX2 analytically  !
 ! R12   R(9,12)                 1.0931         calculate D2E/DX2 analytically  !
 ! R13   R(9,13)                 1.5405         calculate D2E/DX2 analytically  !
 ! R14   R(13,14)                1.537          calculate D2E/DX2 analytically  !
 ! R15   R(13,15)                1.0952         calculate D2E/DX2 analytically  !
 ! R16   R(13,22)                1.5157         calculate D2E/DX2 analytically  !
 ! R17   R(14,16)                1.0936         calculate D2E/DX2 analytically  !
 ! R18   R(14,17)                1.0926         calculate D2E/DX2 analytically  !
 ! R19   R(14,18)                1.5238         calculate D2E/DX2 analytically  !
 ! R20   R(18,19)                1.0899         calculate D2E/DX2 analytically  !
 ! R21   R(18,20)                1.092          calculate D2E/DX2 analytically  !
 ! R22   R(18,21)                1.0903         calculate D2E/DX2 analytically  !
 ! R23   R(22,23)                1.3884         calculate D2E/DX2 analytically  !
 ! R24   R(22,24)                1.3935         calculate D2E/DX2 analytically  !
 ! R25   R(23,25)                1.3856         calculate D2E/DX2 analytically  !
 ! R26   R(23,26)                1.0826         calculate D2E/DX2 analytically  !
 ! R27   R(24,27)                1.3838         calculate D2E/DX2 analytically  !
 ! R28   R(24,28)                1.0831         calculate D2E/DX2 analytically  !
 ! R29   R(25,29)                1.3895         calculate D2E/DX2 analytically  !
 ! R30   R(25,30)                1.0835         calculate D2E/DX2 analytically  !
 ! R31   R(27,29)                1.394          calculate D2E/DX2 analytically  !
 ! R32   R(27,31)                1.0843         calculate D2E/DX2 analytically  !
 ! R33   R(29,45)                1.4989         calculate D2E/DX2 analytically  !
 ! R34   R(32,33)                1.3899         calculate D2E/DX2 analytically  !
 ! R35   R(32,34)                1.3929         calculate D2E/DX2 analytically  !
 ! R36   R(33,35)                1.3877         calculate D2E/DX2 analytically  !
 ! R37   R(33,36)                1.0832         calculate D2E/DX2 analytically  !
 ! R38   R(34,37)                1.3826         calculate D2E/DX2 analytically  !
 ! R39   R(34,38)                1.0822         calculate D2E/DX2 analytically  !
 ! R40   R(35,39)                1.3899         calculate D2E/DX2 analytically  !
 ! R41   R(35,40)                1.0839         calculate D2E/DX2 analytically  !
 ! R42   R(37,39)                1.3946         calculate D2E/DX2 analytically  !
 ! R43   R(37,41)                1.085          calculate D2E/DX2 analytically  !
 ! R44   R(39,42)                1.4993         calculate D2E/DX2 analytically  !
 ! R45   R(42,43)                1.09           calculate D2E/DX2 analytically  !
 ! R46   R(42,44)                1.0883         calculate D2E/DX2 analytically  !
 ! R47   R(42,72)                1.5242         calculate D2E/DX2 analytically  !
 ! R48   R(45,46)                1.0879         calculate D2E/DX2 analytically  !
 ! R49   R(45,47)                1.0856         calculate D2E/DX2 analytically  !
 ! R50   R(45,73)                1.522          calculate D2E/DX2 analytically  !
 ! R51   R(48,49)                1.0879         calculate D2E/DX2 analytically  !
 ! R52   R(48,50)                1.099          calculate D2E/DX2 analytically  !
 ! R53   R(48,51)                1.0877         calculate D2E/DX2 analytically  !
 ! R54   R(48,72)                1.4955         calculate D2E/DX2 analytically  !
 ! R55   R(50,77)                1.9534         calculate D2E/DX2 analytically  !
 ! R56   R(52,53)                1.0865         calculate D2E/DX2 analytically  !
 ! R57   R(52,54)                1.0976         calculate D2E/DX2 analytically  !
 ! R58   R(52,55)                1.0877         calculate D2E/DX2 analytically  !
 ! R59   R(52,72)                1.4953         calculate D2E/DX2 analytically  !
 ! R60   R(54,76)                1.9671         calculate D2E/DX2 analytically  !
 ! R61   R(56,57)                1.0876         calculate D2E/DX2 analytically  !
 ! R62   R(56,58)                1.0863         calculate D2E/DX2 analytically  !
 ! R63   R(56,59)                1.0874         calculate D2E/DX2 analytically  !
 ! R64   R(56,72)                1.4803         calculate D2E/DX2 analytically  !
 ! R65   R(60,61)                1.0883         calculate D2E/DX2 analytically  !
 ! R66   R(60,62)                1.0868         calculate D2E/DX2 analytically  !
 ! R67   R(60,63)                1.0981         calculate D2E/DX2 analytically  !
 ! R68   R(60,73)                1.5005         calculate D2E/DX2 analytically  !
 ! R69   R(63,75)                1.9392         calculate D2E/DX2 analytically  !
 ! R70   R(64,65)                1.0876         calculate D2E/DX2 analytically  !
 ! R71   R(64,66)                1.0862         calculate D2E/DX2 analytically  !
 ! R72   R(64,67)                1.0874         calculate D2E/DX2 analytically  !
 ! R73   R(64,73)                1.4893         calculate D2E/DX2 analytically  !
 ! R74   R(68,69)                1.0863         calculate D2E/DX2 analytically  !
 ! R75   R(68,70)                1.0873         calculate D2E/DX2 analytically  !
 ! R76   R(68,71)                1.0874         calculate D2E/DX2 analytically  !
 ! R77   R(68,73)                1.482          calculate D2E/DX2 analytically  !
 ! R78   R(74,75)                1.2798         calculate D2E/DX2 analytically  !
 ! R79   R(74,76)                1.2859         calculate D2E/DX2 analytically  !
 ! R80   R(74,77)                1.298          calculate D2E/DX2 analytically  !
 ! R81   R(75,82)                1.6508         calculate D2E/DX2 analytically  !
 ! R82   R(77,80)                1.5796         calculate D2E/DX2 analytically  !
 ! R83   R(78,79)                0.9559         calculate D2E/DX2 analytically  !
 ! R84   R(78,80)                1.0076         calculate D2E/DX2 analytically  !
 ! R85   R(81,82)                0.9991         calculate D2E/DX2 analytically  !
 ! R86   R(81,83)                0.9606         calculate D2E/DX2 analytically  !
 ! A1    A(2,1,3)              110.9419         calculate D2E/DX2 analytically  !
 ! A2    A(2,1,4)              111.3024         calculate D2E/DX2 analytically  !
 ! A3    A(2,1,5)              110.9566         calculate D2E/DX2 analytically  !
 ! A4    A(3,1,4)              107.9699         calculate D2E/DX2 analytically  !
 ! A5    A(3,1,5)              107.8262         calculate D2E/DX2 analytically  !
 ! A6    A(4,1,5)              107.6916         calculate D2E/DX2 analytically  !
 ! A7    A(1,2,6)              113.909          calculate D2E/DX2 analytically  !
 ! A8    A(1,2,7)              109.6637         calculate D2E/DX2 analytically  !
 ! A9    A(1,2,8)              109.4611         calculate D2E/DX2 analytically  !
 ! A10   A(6,2,7)              108.7927         calculate D2E/DX2 analytically  !
 ! A11   A(6,2,8)              108.3811         calculate D2E/DX2 analytically  !
 ! A12   A(7,2,8)              106.3518         calculate D2E/DX2 analytically  !
 ! A13   A(2,6,9)              109.6702         calculate D2E/DX2 analytically  !
 ! A14   A(2,6,10)             107.3556         calculate D2E/DX2 analytically  !
 ! A15   A(2,6,32)             110.8605         calculate D2E/DX2 analytically  !
 ! A16   A(9,6,10)             107.1489         calculate D2E/DX2 analytically  !
 ! A17   A(9,6,32)             114.3607         calculate D2E/DX2 analytically  !
 ! A18   A(10,6,32)            107.114          calculate D2E/DX2 analytically  !
 ! A19   A(6,9,11)             109.7558         calculate D2E/DX2 analytically  !
 ! A20   A(6,9,12)             106.7626         calculate D2E/DX2 analytically  !
 ! A21   A(6,9,13)             116.974          calculate D2E/DX2 analytically  !
 ! A22   A(11,9,12)            105.6677         calculate D2E/DX2 analytically  !
 ! A23   A(11,9,13)            109.3294         calculate D2E/DX2 analytically  !
 ! A24   A(12,9,13)            107.7185         calculate D2E/DX2 analytically  !
 ! A25   A(9,13,14)            110.2529         calculate D2E/DX2 analytically  !
 ! A26   A(9,13,15)            107.6708         calculate D2E/DX2 analytically  !
 ! A27   A(9,13,22)            112.3883         calculate D2E/DX2 analytically  !
 ! A28   A(14,13,15)           107.2783         calculate D2E/DX2 analytically  !
 ! A29   A(14,13,22)           111.6231         calculate D2E/DX2 analytically  !
 ! A30   A(15,13,22)           107.3716         calculate D2E/DX2 analytically  !
 ! A31   A(13,14,16)           109.2174         calculate D2E/DX2 analytically  !
 ! A32   A(13,14,17)           108.2883         calculate D2E/DX2 analytically  !
 ! A33   A(13,14,18)           113.6505         calculate D2E/DX2 analytically  !
 ! A34   A(16,14,17)           106.1654         calculate D2E/DX2 analytically  !
 ! A35   A(16,14,18)           109.751          calculate D2E/DX2 analytically  !
 ! A36   A(17,14,18)           109.4883         calculate D2E/DX2 analytically  !
 ! A37   A(14,18,19)           111.0234         calculate D2E/DX2 analytically  !
 ! A38   A(14,18,20)           110.8814         calculate D2E/DX2 analytically  !
 ! A39   A(14,18,21)           111.2712         calculate D2E/DX2 analytically  !
 ! A40   A(19,18,20)           107.8573         calculate D2E/DX2 analytically  !
 ! A41   A(19,18,21)           107.9982         calculate D2E/DX2 analytically  !
 ! A42   A(20,18,21)           107.6584         calculate D2E/DX2 analytically  !
 ! A43   A(13,22,23)           120.8167         calculate D2E/DX2 analytically  !
 ! A44   A(13,22,24)           121.0352         calculate D2E/DX2 analytically  !
 ! A45   A(23,22,24)           118.0666         calculate D2E/DX2 analytically  !
 ! A46   A(22,23,25)           120.941          calculate D2E/DX2 analytically  !
 ! A47   A(22,23,26)           119.4296         calculate D2E/DX2 analytically  !
 ! A48   A(25,23,26)           119.5315         calculate D2E/DX2 analytically  !
 ! A49   A(22,24,27)           121.2517         calculate D2E/DX2 analytically  !
 ! A50   A(22,24,28)           119.8025         calculate D2E/DX2 analytically  !
 ! A51   A(27,24,28)           118.8262         calculate D2E/DX2 analytically  !
 ! A52   A(23,25,29)           120.7243         calculate D2E/DX2 analytically  !
 ! A53   A(23,25,30)           119.6524         calculate D2E/DX2 analytically  !
 ! A54   A(29,25,30)           119.5353         calculate D2E/DX2 analytically  !
 ! A55   A(24,27,29)           120.2517         calculate D2E/DX2 analytically  !
 ! A56   A(24,27,31)           120.5088         calculate D2E/DX2 analytically  !
 ! A57   A(29,27,31)           119.0884         calculate D2E/DX2 analytically  !
 ! A58   A(25,29,27)           118.6498         calculate D2E/DX2 analytically  !
 ! A59   A(25,29,45)           120.1832         calculate D2E/DX2 analytically  !
 ! A60   A(27,29,45)           120.8243         calculate D2E/DX2 analytically  !
 ! A61   A(6,32,33)            120.8558         calculate D2E/DX2 analytically  !
 ! A62   A(6,32,34)            121.1108         calculate D2E/DX2 analytically  !
 ! A63   A(33,32,34)           118.0318         calculate D2E/DX2 analytically  !
 ! A64   A(32,33,35)           120.9588         calculate D2E/DX2 analytically  !
 ! A65   A(32,33,36)           119.437          calculate D2E/DX2 analytically  !
 ! A66   A(35,33,36)           119.5792         calculate D2E/DX2 analytically  !
 ! A67   A(32,34,37)           121.367          calculate D2E/DX2 analytically  !
 ! A68   A(32,34,38)           119.7504         calculate D2E/DX2 analytically  !
 ! A69   A(37,34,38)           118.7917         calculate D2E/DX2 analytically  !
 ! A70   A(33,35,39)           120.6283         calculate D2E/DX2 analytically  !
 ! A71   A(33,35,40)           119.5187         calculate D2E/DX2 analytically  !
 ! A72   A(39,35,40)           119.8119         calculate D2E/DX2 analytically  !
 ! A73   A(34,37,39)           120.2615         calculate D2E/DX2 analytically  !
 ! A74   A(34,37,41)           121.1693         calculate D2E/DX2 analytically  !
 ! A75   A(39,37,41)           118.4969         calculate D2E/DX2 analytically  !
 ! A76   A(35,39,37)           118.6984         calculate D2E/DX2 analytically  !
 ! A77   A(35,39,42)           121.8403         calculate D2E/DX2 analytically  !
 ! A78   A(37,39,42)           119.3136         calculate D2E/DX2 analytically  !
 ! A79   A(39,42,43)           110.3301         calculate D2E/DX2 analytically  !
 ! A80   A(39,42,44)           112.063          calculate D2E/DX2 analytically  !
 ! A81   A(39,42,72)           114.8918         calculate D2E/DX2 analytically  !
 ! A82   A(43,42,44)           109.6313         calculate D2E/DX2 analytically  !
 ! A83   A(43,42,72)           103.7843         calculate D2E/DX2 analytically  !
 ! A84   A(44,42,72)           105.7011         calculate D2E/DX2 analytically  !
 ! A85   A(29,45,46)           111.1031         calculate D2E/DX2 analytically  !
 ! A86   A(29,45,47)           110.161          calculate D2E/DX2 analytically  !
 ! A87   A(29,45,73)           115.6574         calculate D2E/DX2 analytically  !
 ! A88   A(46,45,47)           108.9821         calculate D2E/DX2 analytically  !
 ! A89   A(46,45,73)           105.0452         calculate D2E/DX2 analytically  !
 ! A90   A(47,45,73)           105.528          calculate D2E/DX2 analytically  !
 ! A91   A(49,48,50)           112.4509         calculate D2E/DX2 analytically  !
 ! A92   A(49,48,51)           110.4548         calculate D2E/DX2 analytically  !
 ! A93   A(49,48,72)           108.2214         calculate D2E/DX2 analytically  !
 ! A94   A(50,48,51)           109.5096         calculate D2E/DX2 analytically  !
 ! A95   A(50,48,72)           107.7968         calculate D2E/DX2 analytically  !
 ! A96   A(51,48,72)           108.2773         calculate D2E/DX2 analytically  !
 ! A97   A(48,50,77)           158.8859         calculate D2E/DX2 analytically  !
 ! A98   A(53,52,54)           110.5372         calculate D2E/DX2 analytically  !
 ! A99   A(53,52,55)           110.0152         calculate D2E/DX2 analytically  !
 ! A100  A(53,52,72)           108.612          calculate D2E/DX2 analytically  !
 ! A101  A(54,52,55)           112.4029         calculate D2E/DX2 analytically  !
 ! A102  A(54,52,72)           107.2715         calculate D2E/DX2 analytically  !
 ! A103  A(55,52,72)           107.8586         calculate D2E/DX2 analytically  !
 ! A104  A(52,54,76)           153.8575         calculate D2E/DX2 analytically  !
 ! A105  A(57,56,58)           109.8863         calculate D2E/DX2 analytically  !
 ! A106  A(57,56,59)           109.8539         calculate D2E/DX2 analytically  !
 ! A107  A(57,56,72)           109.0035         calculate D2E/DX2 analytically  !
 ! A108  A(58,56,59)           110.0521         calculate D2E/DX2 analytically  !
 ! A109  A(58,56,72)           109.3155         calculate D2E/DX2 analytically  !
 ! A110  A(59,56,72)           108.7032         calculate D2E/DX2 analytically  !
 ! A111  A(61,60,62)           111.1153         calculate D2E/DX2 analytically  !
 ! A112  A(61,60,63)           112.2848         calculate D2E/DX2 analytically  !
 ! A113  A(61,60,73)           107.8107         calculate D2E/DX2 analytically  !
 ! A114  A(62,60,63)           109.2417         calculate D2E/DX2 analytically  !
 ! A115  A(62,60,73)           107.8147         calculate D2E/DX2 analytically  !
 ! A116  A(63,60,73)           108.4287         calculate D2E/DX2 analytically  !
 ! A117  A(60,63,75)           157.76           calculate D2E/DX2 analytically  !
 ! A118  A(65,64,66)           109.6724         calculate D2E/DX2 analytically  !
 ! A119  A(65,64,67)           111.2409         calculate D2E/DX2 analytically  !
 ! A120  A(65,64,73)           108.5855         calculate D2E/DX2 analytically  !
 ! A121  A(66,64,67)           109.9909         calculate D2E/DX2 analytically  !
 ! A122  A(66,64,73)           108.9749         calculate D2E/DX2 analytically  !
 ! A123  A(67,64,73)           108.3245         calculate D2E/DX2 analytically  !
 ! A124  A(69,68,70)           109.9746         calculate D2E/DX2 analytically  !
 ! A125  A(69,68,71)           110.2365         calculate D2E/DX2 analytically  !
 ! A126  A(69,68,73)           109.4507         calculate D2E/DX2 analytically  !
 ! A127  A(70,68,71)           109.9721         calculate D2E/DX2 analytically  !
 ! A128  A(70,68,73)           108.4838         calculate D2E/DX2 analytically  !
 ! A129  A(71,68,73)           108.6867         calculate D2E/DX2 analytically  !
 ! A130  A(42,72,48)           106.9206         calculate D2E/DX2 analytically  !
 ! A131  A(42,72,52)           110.3942         calculate D2E/DX2 analytically  !
 ! A132  A(42,72,56)           111.0593         calculate D2E/DX2 analytically  !
 ! A133  A(48,72,52)           108.3261         calculate D2E/DX2 analytically  !
 ! A134  A(48,72,56)           110.0173         calculate D2E/DX2 analytically  !
 ! A135  A(52,72,56)           110.0383         calculate D2E/DX2 analytically  !
 ! A136  A(45,73,60)           107.5399         calculate D2E/DX2 analytically  !
 ! A137  A(45,73,64)           110.3305         calculate D2E/DX2 analytically  !
 ! A138  A(45,73,68)           110.4866         calculate D2E/DX2 analytically  !
 ! A139  A(60,73,64)           109.0123         calculate D2E/DX2 analytically  !
 ! A140  A(60,73,68)           109.3258         calculate D2E/DX2 analytically  !
 ! A141  A(64,73,68)           110.0905         calculate D2E/DX2 analytically  !
 ! A142  A(75,74,76)           120.6894         calculate D2E/DX2 analytically  !
 ! A143  A(75,74,77)           119.8181         calculate D2E/DX2 analytically  !
 ! A144  A(76,74,77)           119.3895         calculate D2E/DX2 analytically  !
 ! A145  A(63,75,74)           104.2965         calculate D2E/DX2 analytically  !
 ! A146  A(63,75,82)           106.7774         calculate D2E/DX2 analytically  !
 ! A147  A(74,75,82)           107.7675         calculate D2E/DX2 analytically  !
 ! A148  A(54,76,74)           121.5264         calculate D2E/DX2 analytically  !
 ! A149  A(50,77,74)           118.4947         calculate D2E/DX2 analytically  !
 ! A150  A(50,77,80)            84.4817         calculate D2E/DX2 analytically  !
 ! A151  A(74,77,80)           127.4077         calculate D2E/DX2 analytically  !
 ! A152  A(79,78,80)           104.7948         calculate D2E/DX2 analytically  !
 ! A153  A(82,81,83)            98.1288         calculate D2E/DX2 analytically  !
 ! A154  A(75,82,81)           164.6472         calculate D2E/DX2 analytically  !
 ! A155  L(77,80,78,1,-1)      177.6241         calculate D2E/DX2 analytically  !
 ! A156  L(77,80,78,1,-2)      177.8568         calculate D2E/DX2 analytically  !
 ! D1    D(3,1,2,6)            177.5414         calculate D2E/DX2 analytically  !
 ! D2    D(3,1,2,7)            -60.2757         calculate D2E/DX2 analytically  !
 ! D3    D(3,1,2,8)             56.0422         calculate D2E/DX2 analytically  !
 ! D4    D(4,1,2,6)            -62.2074         calculate D2E/DX2 analytically  !
 ! D5    D(4,1,2,7)             59.9755         calculate D2E/DX2 analytically  !
 ! D6    D(4,1,2,8)            176.2934         calculate D2E/DX2 analytically  !
 ! D7    D(5,1,2,6)             57.7017         calculate D2E/DX2 analytically  !
 ! D8    D(5,1,2,7)            179.8846         calculate D2E/DX2 analytically  !
 ! D9    D(5,1,2,8)            -63.7975         calculate D2E/DX2 analytically  !
 ! D10   D(1,2,6,9)           -173.8979         calculate D2E/DX2 analytically  !
 ! D11   D(1,2,6,10)           -57.8078         calculate D2E/DX2 analytically  !
 ! D12   D(1,2,6,32)            58.8739         calculate D2E/DX2 analytically  !
 ! D13   D(7,2,6,9)             63.4409         calculate D2E/DX2 analytically  !
 ! D14   D(7,2,6,10)           179.531          calculate D2E/DX2 analytically  !
 ! D15   D(7,2,6,32)           -63.7872         calculate D2E/DX2 analytically  !
 ! D16   D(8,2,6,9)            -51.8015         calculate D2E/DX2 analytically  !
 ! D17   D(8,2,6,10)            64.2886         calculate D2E/DX2 analytically  !
 ! D18   D(8,2,6,32)          -179.0297         calculate D2E/DX2 analytically  !
 ! D19   D(2,6,9,11)           -60.9757         calculate D2E/DX2 analytically  !
 ! D20   D(2,6,9,12)            53.0947         calculate D2E/DX2 analytically  !
 ! D21   D(2,6,9,13)           173.755          calculate D2E/DX2 analytically  !
 ! D22   D(10,6,9,11)         -177.1965         calculate D2E/DX2 analytically  !
 ! D23   D(10,6,9,12)          -63.1261         calculate D2E/DX2 analytically  !
 ! D24   D(10,6,9,13)           57.5342         calculate D2E/DX2 analytically  !
 ! D25   D(32,6,9,11)           64.2627         calculate D2E/DX2 analytically  !
 ! D26   D(32,6,9,12)          178.3331         calculate D2E/DX2 analytically  !
 ! D27   D(32,6,9,13)          -61.0066         calculate D2E/DX2 analytically  !
 ! D28   D(2,6,32,33)         -109.4998         calculate D2E/DX2 analytically  !
 ! D29   D(2,6,32,34)           70.9682         calculate D2E/DX2 analytically  !
 ! D30   D(9,6,32,33)          125.8913         calculate D2E/DX2 analytically  !
 ! D31   D(9,6,32,34)          -53.6407         calculate D2E/DX2 analytically  !
 ! D32   D(10,6,32,33)           7.3307         calculate D2E/DX2 analytically  !
 ! D33   D(10,6,32,34)        -172.2013         calculate D2E/DX2 analytically  !
 ! D34   D(6,9,13,14)         -159.8363         calculate D2E/DX2 analytically  !
 ! D35   D(6,9,13,15)          -43.1046         calculate D2E/DX2 analytically  !
 ! D36   D(6,9,13,22)           74.9382         calculate D2E/DX2 analytically  !
 ! D37   D(11,9,13,14)          74.6812         calculate D2E/DX2 analytically  !
 ! D38   D(11,9,13,15)        -168.5872         calculate D2E/DX2 analytically  !
 ! D39   D(11,9,13,22)         -50.5443         calculate D2E/DX2 analytically  !
 ! D40   D(12,9,13,14)         -39.6815         calculate D2E/DX2 analytically  !
 ! D41   D(12,9,13,15)          77.0501         calculate D2E/DX2 analytically  !
 ! D42   D(12,9,13,22)        -164.907          calculate D2E/DX2 analytically  !
 ! D43   D(9,13,14,16)         -60.1265         calculate D2E/DX2 analytically  !
 ! D44   D(9,13,14,17)          55.0703         calculate D2E/DX2 analytically  !
 ! D45   D(9,13,14,18)         176.9619         calculate D2E/DX2 analytically  !
 ! D46   D(15,13,14,16)       -177.1022         calculate D2E/DX2 analytically  !
 ! D47   D(15,13,14,17)        -61.9054         calculate D2E/DX2 analytically  !
 ! D48   D(15,13,14,18)         59.9861         calculate D2E/DX2 analytically  !
 ! D49   D(22,13,14,16)         65.5335         calculate D2E/DX2 analytically  !
 ! D50   D(22,13,14,17)       -179.2697         calculate D2E/DX2 analytically  !
 ! D51   D(22,13,14,18)        -57.3781         calculate D2E/DX2 analytically  !
 ! D52   D(9,13,22,23)        -114.513          calculate D2E/DX2 analytically  !
 ! D53   D(9,13,22,24)          62.1423         calculate D2E/DX2 analytically  !
 ! D54   D(14,13,22,23)        121.0144         calculate D2E/DX2 analytically  !
 ! D55   D(14,13,22,24)        -62.3302         calculate D2E/DX2 analytically  !
 ! D56   D(15,13,22,23)          3.7065         calculate D2E/DX2 analytically  !
 ! D57   D(15,13,22,24)       -179.6382         calculate D2E/DX2 analytically  !
 ! D58   D(13,14,18,19)       -177.3986         calculate D2E/DX2 analytically  !
 ! D59   D(13,14,18,20)        -57.5158         calculate D2E/DX2 analytically  !
 ! D60   D(13,14,18,21)         62.2804         calculate D2E/DX2 analytically  !
 ! D61   D(16,14,18,19)         59.9831         calculate D2E/DX2 analytically  !
 ! D62   D(16,14,18,20)        179.8659         calculate D2E/DX2 analytically  !
 ! D63   D(16,14,18,21)        -60.3379         calculate D2E/DX2 analytically  !
 ! D64   D(17,14,18,19)        -56.1755         calculate D2E/DX2 analytically  !
 ! D65   D(17,14,18,20)         63.7073         calculate D2E/DX2 analytically  !
 ! D66   D(17,14,18,21)       -176.4965         calculate D2E/DX2 analytically  !
 ! D67   D(13,22,23,25)        173.6022         calculate D2E/DX2 analytically  !
 ! D68   D(13,22,23,26)         -2.7843         calculate D2E/DX2 analytically  !
 ! D69   D(24,22,23,25)         -3.15           calculate D2E/DX2 analytically  !
 ! D70   D(24,22,23,26)       -179.5366         calculate D2E/DX2 analytically  !
 ! D71   D(13,22,24,27)       -172.8995         calculate D2E/DX2 analytically  !
 ! D72   D(13,22,24,28)          3.0771         calculate D2E/DX2 analytically  !
 ! D73   D(23,22,24,27)          3.8453         calculate D2E/DX2 analytically  !
 ! D74   D(23,22,24,28)        179.8219         calculate D2E/DX2 analytically  !
 ! D75   D(22,23,25,29)          0.3821         calculate D2E/DX2 analytically  !
 ! D76   D(22,23,25,30)       -176.1913         calculate D2E/DX2 analytically  !
 ! D77   D(26,23,25,29)        176.765          calculate D2E/DX2 analytically  !
 ! D78   D(26,23,25,30)          0.1916         calculate D2E/DX2 analytically  !
 ! D79   D(22,24,27,29)         -1.7611         calculate D2E/DX2 analytically  !
 ! D80   D(22,24,27,31)        173.7311         calculate D2E/DX2 analytically  !
 ! D81   D(28,24,27,29)       -177.776          calculate D2E/DX2 analytically  !
 ! D82   D(28,24,27,31)         -2.2839         calculate D2E/DX2 analytically  !
 ! D83   D(23,25,29,27)          1.7668         calculate D2E/DX2 analytically  !
 ! D84   D(23,25,29,45)       -171.5677         calculate D2E/DX2 analytically  !
 ! D85   D(30,25,29,27)        178.3443         calculate D2E/DX2 analytically  !
 ! D86   D(30,25,29,45)          5.0097         calculate D2E/DX2 analytically  !
 ! D87   D(24,27,29,25)         -1.083          calculate D2E/DX2 analytically  !
 ! D88   D(24,27,29,45)        172.2073         calculate D2E/DX2 analytically  !
 ! D89   D(31,27,29,25)       -176.6388         calculate D2E/DX2 analytically  !
 ! D90   D(31,27,29,45)         -3.3485         calculate D2E/DX2 analytically  !
 ! D91   D(25,29,45,46)         18.1251         calculate D2E/DX2 analytically  !
 ! D92   D(25,29,45,47)        138.9962         calculate D2E/DX2 analytically  !
 ! D93   D(25,29,45,73)       -101.4827         calculate D2E/DX2 analytically  !
 ! D94   D(27,29,45,46)       -155.0627         calculate D2E/DX2 analytically  !
 ! D95   D(27,29,45,47)        -34.1915         calculate D2E/DX2 analytically  !
 ! D96   D(27,29,45,73)         85.3295         calculate D2E/DX2 analytically  !
 ! D97   D(6,32,33,35)        -177.8503         calculate D2E/DX2 analytically  !
 ! D98   D(6,32,33,36)           0.3244         calculate D2E/DX2 analytically  !
 ! D99   D(34,32,33,35)          1.6957         calculate D2E/DX2 analytically  !
 ! D100  D(34,32,33,36)        179.8704         calculate D2E/DX2 analytically  !
 ! D101  D(6,32,34,37)         176.7158         calculate D2E/DX2 analytically  !
 ! D102  D(6,32,34,38)           0.2236         calculate D2E/DX2 analytically  !
 ! D103  D(33,32,34,37)         -2.829          calculate D2E/DX2 analytically  !
 ! D104  D(33,32,34,38)       -179.3213         calculate D2E/DX2 analytically  !
 ! D105  D(32,33,35,39)          0.1225         calculate D2E/DX2 analytically  !
 ! D106  D(32,33,35,40)        177.7844         calculate D2E/DX2 analytically  !
 ! D107  D(36,33,35,39)       -178.0497         calculate D2E/DX2 analytically  !
 ! D108  D(36,33,35,40)         -0.3878         calculate D2E/DX2 analytically  !
 ! D109  D(32,34,37,39)          2.137          calculate D2E/DX2 analytically  !
 ! D110  D(32,34,37,41)       -174.7246         calculate D2E/DX2 analytically  !
 ! D111  D(38,34,37,39)        178.662          calculate D2E/DX2 analytically  !
 ! D112  D(38,34,37,41)          1.8005         calculate D2E/DX2 analytically  !
 ! D113  D(33,35,39,37)         -0.8646         calculate D2E/DX2 analytically  !
 ! D114  D(33,35,39,42)        174.6857         calculate D2E/DX2 analytically  !
 ! D115  D(40,35,39,37)       -178.5197         calculate D2E/DX2 analytically  !
 ! D116  D(40,35,39,42)         -2.9694         calculate D2E/DX2 analytically  !
 ! D117  D(34,37,39,35)         -0.247          calculate D2E/DX2 analytically  !
 ! D118  D(34,37,39,42)       -175.912          calculate D2E/DX2 analytically  !
 ! D119  D(41,37,39,35)        176.6975         calculate D2E/DX2 analytically  !
 ! D120  D(41,37,39,42)          1.0325         calculate D2E/DX2 analytically  !
 ! D121  D(35,39,42,43)       -148.1719         calculate D2E/DX2 analytically  !
 ! D122  D(35,39,42,44)        -25.7083         calculate D2E/DX2 analytically  !
 ! D123  D(35,39,42,72)         94.9536         calculate D2E/DX2 analytically  !
 ! D124  D(37,39,42,43)         27.3517         calculate D2E/DX2 analytically  !
 ! D125  D(37,39,42,44)        149.8153         calculate D2E/DX2 analytically  !
 ! D126  D(37,39,42,72)        -89.5227         calculate D2E/DX2 analytically  !
 ! D127  D(39,42,72,48)        179.0246         calculate D2E/DX2 analytically  !
 ! D128  D(39,42,72,52)         61.3963         calculate D2E/DX2 analytically  !
 ! D129  D(39,42,72,56)        -60.9396         calculate D2E/DX2 analytically  !
 ! D130  D(43,42,72,48)         58.4805         calculate D2E/DX2 analytically  !
 ! D131  D(43,42,72,52)        -59.1478         calculate D2E/DX2 analytically  !
 ! D132  D(43,42,72,56)        178.5162         calculate D2E/DX2 analytically  !
 ! D133  D(44,42,72,48)        -56.8794         calculate D2E/DX2 analytically  !
 ! D134  D(44,42,72,52)       -174.5077         calculate D2E/DX2 analytically  !
 ! D135  D(44,42,72,56)         63.1563         calculate D2E/DX2 analytically  !
 ! D136  D(29,45,73,60)        174.7631         calculate D2E/DX2 analytically  !
 ! D137  D(29,45,73,64)        -66.4562         calculate D2E/DX2 analytically  !
 ! D138  D(29,45,73,68)         55.5147         calculate D2E/DX2 analytically  !
 ! D139  D(46,45,73,60)         51.8936         calculate D2E/DX2 analytically  !
 ! D140  D(46,45,73,64)        170.6744         calculate D2E/DX2 analytically  !
 ! D141  D(46,45,73,68)        -67.3547         calculate D2E/DX2 analytically  !
 ! D142  D(47,45,73,60)        -63.2104         calculate D2E/DX2 analytically  !
 ! D143  D(47,45,73,64)         55.5704         calculate D2E/DX2 analytically  !
 ! D144  D(47,45,73,68)        177.5413         calculate D2E/DX2 analytically  !
 ! D145  D(49,48,50,77)       -178.941          calculate D2E/DX2 analytically  !
 ! D146  D(51,48,50,77)        -55.741          calculate D2E/DX2 analytically  !
 ! D147  D(72,48,50,77)         61.8512         calculate D2E/DX2 analytically  !
 ! D148  D(49,48,72,42)       -179.2594         calculate D2E/DX2 analytically  !
 ! D149  D(49,48,72,52)        -60.2816         calculate D2E/DX2 analytically  !
 ! D150  D(49,48,72,56)         60.0387         calculate D2E/DX2 analytically  !
 ! D151  D(50,48,72,42)        -57.3935         calculate D2E/DX2 analytically  !
 ! D152  D(50,48,72,52)         61.5843         calculate D2E/DX2 analytically  !
 ! D153  D(50,48,72,56)       -178.0955         calculate D2E/DX2 analytically  !
 ! D154  D(51,48,72,42)         60.9923         calculate D2E/DX2 analytically  !
 ! D155  D(51,48,72,52)        179.9701         calculate D2E/DX2 analytically  !
 ! D156  D(51,48,72,56)        -59.7096         calculate D2E/DX2 analytically  !
 ! D157  D(48,50,77,74)        -95.0274         calculate D2E/DX2 analytically  !
 ! D158  D(48,50,77,80)         34.913          calculate D2E/DX2 analytically  !
 ! D159  D(53,52,54,76)         75.794          calculate D2E/DX2 analytically  !
 ! D160  D(55,52,54,76)       -160.8549         calculate D2E/DX2 analytically  !
 ! D161  D(72,52,54,76)        -42.4606         calculate D2E/DX2 analytically  !
 ! D162  D(53,52,72,42)        -68.313          calculate D2E/DX2 analytically  !
 ! D163  D(53,52,72,48)        174.9277         calculate D2E/DX2 analytically  !
 ! D164  D(53,52,72,56)         54.6205         calculate D2E/DX2 analytically  !
 ! D165  D(54,52,72,42)         51.183          calculate D2E/DX2 analytically  !
 ! D166  D(54,52,72,48)        -65.5763         calculate D2E/DX2 analytically  !
 ! D167  D(54,52,72,56)        174.1165         calculate D2E/DX2 analytically  !
 ! D168  D(55,52,72,42)        172.4814         calculate D2E/DX2 analytically  !
 ! D169  D(55,52,72,48)         55.7221         calculate D2E/DX2 analytically  !
 ! D170  D(55,52,72,56)        -64.585          calculate D2E/DX2 analytically  !
 ! D171  D(52,54,76,74)        100.0045         calculate D2E/DX2 analytically  !
 ! D172  D(57,56,72,42)        -58.4202         calculate D2E/DX2 analytically  !
 ! D173  D(57,56,72,48)         59.7575         calculate D2E/DX2 analytically  !
 ! D174  D(57,56,72,52)        179.0376         calculate D2E/DX2 analytically  !
 ! D175  D(58,56,72,42)         61.7077         calculate D2E/DX2 analytically  !
 ! D176  D(58,56,72,48)        179.8854         calculate D2E/DX2 analytically  !
 ! D177  D(58,56,72,52)        -60.8344         calculate D2E/DX2 analytically  !
 ! D178  D(59,56,72,42)       -178.1439         calculate D2E/DX2 analytically  !
 ! D179  D(59,56,72,48)        -59.9662         calculate D2E/DX2 analytically  !
 ! D180  D(59,56,72,52)         59.3139         calculate D2E/DX2 analytically  !
 ! D181  D(61,60,63,75)       -156.0858         calculate D2E/DX2 analytically  !
 ! D182  D(62,60,63,75)         80.1753         calculate D2E/DX2 analytically  !
 ! D183  D(73,60,63,75)        -37.0742         calculate D2E/DX2 analytically  !
 ! D184  D(61,60,73,45)        178.6837         calculate D2E/DX2 analytically  !
 ! D185  D(61,60,73,64)         59.0598         calculate D2E/DX2 analytically  !
 ! D186  D(61,60,73,68)        -61.3285         calculate D2E/DX2 analytically  !
 ! D187  D(62,60,73,45)        -61.2715         calculate D2E/DX2 analytically  !
 ! D188  D(62,60,73,64)        179.1046         calculate D2E/DX2 analytically  !
 ! D189  D(62,60,73,68)         58.7162         calculate D2E/DX2 analytically  !
 ! D190  D(63,60,73,45)         56.8888         calculate D2E/DX2 analytically  !
 ! D191  D(63,60,73,64)        -62.7351         calculate D2E/DX2 analytically  !
 ! D192  D(63,60,73,68)        176.8765         calculate D2E/DX2 analytically  !
 ! D193  D(60,63,75,74)        -48.568          calculate D2E/DX2 analytically  !
 ! D194  D(60,63,75,82)         65.3693         calculate D2E/DX2 analytically  !
 ! D195  D(65,64,73,45)        -51.6128         calculate D2E/DX2 analytically  !
 ! D196  D(65,64,73,60)         66.266          calculate D2E/DX2 analytically  !
 ! D197  D(65,64,73,68)       -173.8172         calculate D2E/DX2 analytically  !
 ! D198  D(66,64,73,45)         67.8059         calculate D2E/DX2 analytically  !
 ! D199  D(66,64,73,60)       -174.3153         calculate D2E/DX2 analytically  !
 ! D200  D(66,64,73,68)        -54.3985         calculate D2E/DX2 analytically  !
 ! D201  D(67,64,73,45)       -172.5439         calculate D2E/DX2 analytically  !
 ! D202  D(67,64,73,60)        -54.6651         calculate D2E/DX2 analytically  !
 ! D203  D(67,64,73,68)         65.2516         calculate D2E/DX2 analytically  !
 ! D204  D(69,68,73,45)        -62.0705         calculate D2E/DX2 analytically  !
 ! D205  D(69,68,73,60)        179.7682         calculate D2E/DX2 analytically  !
 ! D206  D(69,68,73,64)         60.0415         calculate D2E/DX2 analytically  !
 ! D207  D(70,68,73,45)         57.9319         calculate D2E/DX2 analytically  !
 ! D208  D(70,68,73,60)        -60.2294         calculate D2E/DX2 analytically  !
 ! D209  D(70,68,73,64)       -179.956          calculate D2E/DX2 analytically  !
 ! D210  D(71,68,73,45)        177.486          calculate D2E/DX2 analytically  !
 ! D211  D(71,68,73,60)         59.3247         calculate D2E/DX2 analytically  !
 ! D212  D(71,68,73,64)        -60.402          calculate D2E/DX2 analytically  !
 ! D213  D(76,74,75,63)        127.1926         calculate D2E/DX2 analytically  !
 ! D214  D(76,74,75,82)         13.9605         calculate D2E/DX2 analytically  !
 ! D215  D(77,74,75,63)        -49.0935         calculate D2E/DX2 analytically  !
 ! D216  D(77,74,75,82)       -162.3256         calculate D2E/DX2 analytically  !
 ! D217  D(75,74,76,54)        151.5986         calculate D2E/DX2 analytically  !
 ! D218  D(77,74,76,54)        -32.0995         calculate D2E/DX2 analytically  !
 ! D219  D(75,74,77,50)       -162.5027         calculate D2E/DX2 analytically  !
 ! D220  D(75,74,77,80)         91.3924         calculate D2E/DX2 analytically  !
 ! D221  D(76,74,77,50)         21.1627         calculate D2E/DX2 analytically  !
 ! D222  D(76,74,77,80)        -84.9422         calculate D2E/DX2 analytically  !
 ! D223  D(63,75,82,81)        -72.9343         calculate D2E/DX2 analytically  !
 ! D224  D(74,75,82,81)         38.6238         calculate D2E/DX2 analytically  !
 ! D225  D(50,77,78,79)         91.5868         calculate D2E/DX2 analytically  !
 ! D226  D(74,77,78,79)       -147.3332         calculate D2E/DX2 analytically  !
 ! D227  D(83,81,82,75)        -58.1611         calculate D2E/DX2 analytically  !
 --------------------------------------------------------------------------------
 Trust Radius=3.00D-01 FncErr=1.00D-07 GrdErr=1.00D-06 EigMax=2.50D+02 EigMin=1.00D-04
 Number of steps in this run=    479 maximum allowed number of steps=    498.
 GradGradGradGradGradGradGradGradGradGradGradGradGradGradGradGradGradGrad

 Leave Link  103 at Thu Mar 14 13:15:12 2024, MaxMem=  1073741824 cpu:               0.8 elap:               0.1
 (Enter /packages/apps/gaussian/g16/g16/l202.exe)
 Stoichiometry    C28H48N2O5
 Framework group  C1[X(C28H48N2O5)]
 Deg. of freedom   243
 Full point group                 C1      NOp   1
 Largest Abelian subgroup         C1      NOp   1
 Largest concise Abelian subgroup C1      NOp   1
                         Standard orientation:                         
 ---------------------------------------------------------------------
 Center     Atomic      Atomic             Coordinates (Angstroms)
 Number     Number       Type             X           Y           Z
 ---------------------------------------------------------------------
      1          6           0       -4.712955    3.631105    0.785128
      2          6           0       -4.804521    2.171506    1.213128
      3          1           0       -5.189363    4.282505    1.517696
      4          1           0       -3.675311    3.948013    0.677688
      5          1           0       -5.209115    3.788491   -0.174873
      6          6           0       -4.204424    1.184761    0.196526
      7          1           0       -4.300104    2.037478    2.174180
      8          1           0       -5.851706    1.904711    1.375457
      9          6           0       -4.483231   -0.259242    0.649575
     10          1           0       -4.730893    1.332843   -0.752480
     11          1           0       -4.016369   -0.438165    1.622173
     12          1           0       -5.560245   -0.333483    0.820983
     13          6           0       -4.084436   -1.385851   -0.322432
     14          6           0       -4.850509   -2.675053    0.014306
     15          1           0       -4.389117   -1.079887   -1.328957
     16          1           0       -4.608366   -2.981255    1.035840
     17          1           0       -5.919588   -2.449749    0.009614
     18          6           0       -4.568592   -3.822663   -0.947791
     19          1           0       -5.166634   -4.698781   -0.697303
     20          1           0       -4.806620   -3.537166   -1.974569
     21          1           0       -3.517999   -4.112839   -0.920293
     22          6           0       -2.586930   -1.618026   -0.353881
     23          6           0       -1.851457   -1.361913   -1.503248
     24          6           0       -1.899276   -2.027582    0.786872
     25          6           0       -0.468453   -1.446677   -1.497718
     26          1           0       -2.362446   -1.035224   -2.399953
     27          6           0       -0.517534   -2.101069    0.804564
     28          1           0       -2.444853   -2.232204    1.699885
     29          6           0        0.216579   -1.798485   -0.341198
     30          1           0        0.088347   -1.182539   -2.388859
     31          1           0        0.010167   -2.322829    1.725457
     32          6           0       -2.741182    1.490148   -0.052865
     33          6           0       -2.320488    2.020504   -1.266772
     34          6           0       -1.777510    1.239685    0.921205
     35          6           0       -0.976048    2.259694   -1.513697
     36          1           0       -3.050494    2.222184   -2.041183
     37          6           0       -0.433721    1.453254    0.675803
     38          1           0       -2.072820    0.816647    1.872504
     39          6           0       -0.016786    1.970859   -0.550192
     40          1           0       -0.670234    2.639983   -2.481524
     41          1           0        0.320974    1.178054    1.405103
     42          6           0        1.450123    2.107661   -0.828565
     43          1           0        2.014138    1.368976   -0.259107
     44          1           0        1.676631    2.003470   -1.887876
     45          6           0        1.711724   -1.704444   -0.292834
     46          1           0        2.089871   -1.064653   -1.087365
     47          1           0        2.030690   -1.304380    0.664644
     48          6           0        3.518467    3.372821   -0.739158
     49          1           0        3.979943    4.309110   -0.432505
     50          1           0        3.944534    2.504341   -0.217643
     51          1           0        3.615901    3.235040   -1.813695
     52          6           0        1.927025    3.626323    1.072389
     53          1           0        0.875758    3.764352    1.309537
     54          1           0        2.314419    2.719084    1.553614
     55          1           0        2.490656    4.514807    1.348162
     56          6           0        1.427768    4.567360   -1.120564
     57          1           0        1.550666    4.421930   -2.191398
     58          1           0        0.371068    4.602609   -0.871332
     59          1           0        1.913899    5.490842   -0.815089
     60          6           0        3.925917   -2.702225   -0.508322
     61          1           0        4.466947   -3.642010   -0.600354
     62          1           0        4.096825   -2.065835   -1.372530
     63          1           0        4.195962   -2.153875    0.403971
     64          6           0        2.199198   -3.910440    0.710057
     65          1           0        2.398184   -3.354266    1.623279
     66          1           0        1.158589   -4.221303    0.690627
     67          1           0        2.848229   -4.779033    0.628463
     68          6           0        2.058285   -3.694120   -1.711524
     69          1           0        0.998272   -3.928610   -1.673133
     70          1           0        2.260346   -3.022981   -2.542717
     71          1           0        2.641429   -4.605504   -1.819819
     72          7           0        2.062247    3.437647   -0.404742
     73          7           0        2.460349   -3.019706   -0.454655
     74          6           0        3.594569    0.174361    1.321358
     75          8           0        3.992165   -0.908204    1.876130
     76          8           0        2.534175    0.772744    1.734990
     77          8           0        4.224280    0.637640    0.285152
     78          8           0        3.694727    0.200691   -2.208357
     79          1           0        4.539002    0.211281   -2.656410
     80          1           0        3.917790    0.340998   -1.235788
     81          8           0        1.863486   -1.734092    3.176363
     82          1           0        2.758074   -1.476447    2.813782
     83          1           0        1.456521   -0.864045    3.164769
 ---------------------------------------------------------------------
 Rotational constants (GHZ):           0.1403494           0.0967809           0.0692413
 Leave Link  202 at Thu Mar 14 13:15:12 2024, MaxMem=  1073741824 cpu:               1.1 elap:               0.1
 (Enter /packages/apps/gaussian/g16/g16/l301.exe)
 Standard basis: 6-311+G(2d,2p) (5D, 7F)
 Ernie: Thresh=  0.10000D-02 Tol=  0.10000D-05 Strict=F.
 There are  1447 symmetry adapted cartesian basis functions of A   symmetry.
 There are  1377 symmetry adapted basis functions of A   symmetry.
  1377 basis functions,  1998 primitive gaussians,  1447 cartesian basis functions
   135 alpha electrons      135 beta electrons
       nuclear repulsion energy      4369.4129983307 Hartrees.
 IExCor= 4639 DFT=T Ex+Corr=wB97XD ExCW=0 ScaHFX=  1.000000
 ScaDFX=  1.000000  1.000000  1.000000  1.000000 ScalE2=  1.000000  1.000000
 IRadAn=      5 IRanWt=     -1 IRanGd=            0 ICorTp=0 IEmpDi=121
 HFx  wShort=  0.000000 wLong=  0.200000 cFull=  0.222036 cShort=  0.000000 cLong=  0.777964
 DFx  wShort=  0.000000 wLong=  0.200000 cFull=  0.000000 cShort=  0.000000 cLong=  1.000000
 NAtoms=   83 NActive=   83 NUniq=   83 SFac= 1.00D+00 NAtFMM=   60 NAOKFM=T Big=T
 Integral buffers will be    131072 words long.
 Raffenetti 2 integral format.
 Two-electron integral symmetry is turned on.
 R6Disp:  Grimme-D2 Dispersion energy=       -0.1011119313 Hartrees.
 Nuclear repulsion after empirical dispersion term =     4369.3118863994 Hartrees.
 Leave Link  301 at Thu Mar 14 13:15:12 2024, MaxMem=  1073741824 cpu:               1.0 elap:               0.1
 (Enter /packages/apps/gaussian/g16/g16/l302.exe)
 NPDir=0 NMtPBC=     1 NCelOv=     1 NCel=       1 NClECP=     1 NCelD=      1
         NCelK=      1 NCelE2=     1 NClLst=     1 CellRange=     0.0.
 One-electron integrals computed using PRISM.
 One-electron integral symmetry used in STVInt
 NBasis=  1377 RedAO= T EigKep=  1.22D-06  NBF=  1377
 NBsUse=  1367 1.00D-06 EigRej=  9.10D-07 NBFU=  1367
 Precomputing XC quadrature grid using
 IXCGrd= 4 IRadAn=           5 IRanWt=          -1 IRanGd=           0 AccXCQ= 0.00D+00.
 Generated NRdTot=       0 NPtTot=           0 NUsed=           0 NTot=          32
 NSgBfM=  1382  1382  1382  1382  1382 MxSgAt=    83 MxSgA2=    83.
 Leave Link  302 at Thu Mar 14 13:15:15 2024, MaxMem=  1073741824 cpu:              47.6 elap:               2.6
 (Enter /packages/apps/gaussian/g16/g16/l303.exe)
 DipDrv:  MaxL=1.
 Leave Link  303 at Thu Mar 14 13:15:16 2024, MaxMem=  1073741824 cpu:               5.0 elap:               0.5
 (Enter /packages/apps/gaussian/g16/g16/l401.exe)
 ExpMin= 4.38D-02 ExpMax= 8.59D+03 ExpMxC= 1.30D+03 IAcc=3 IRadAn=         5 AccDes= 0.00D+00
 Harris functional with IExCor= 4639 and IRadAn=       5 diagonalized for initial guess.
 HarFok:  IExCor= 4639 AccDes= 0.00D+00 IRadAn=         5 IDoV= 1 UseB2=F ITyADJ=14
 ICtDFT=  3500011 ScaDFX=  1.000000  1.000000  1.000000  1.000000
 FoFCou: FMM=F IPFlag=           0 FMFlag=      100000 FMFlg1=        2001
         NFxFlg=           0 DoJE=T BraDBF=F KetDBF=T FulRan=T
         wScrn=  0.000000 ICntrl=       500 IOpCl=  0 I1Cent=   200000004 NGrid=           0
         NMat0=    1 NMatS0=      1 NMatT0=    0 NMatD0=    1 NMtDS0=    0 NMtDT0=    0
 Petite list used in FoFCou.
 Harris En= -1511.36010680969    
 JPrj=0 DoOrth=F DoCkMO=F.
 Leave Link  401 at Thu Mar 14 13:15:24 2024, MaxMem=  1073741824 cpu:             159.7 elap:               8.2
 (Enter /packages/apps/gaussian/g16/g16/l502.exe)
 Integral symmetry usage will be decided dynamically.
 Closed shell SCF:
 Using DIIS extrapolation, IDIIS=  1040.
 NGot=  1073741824 LenX=  1069511977 LenY=  1067416721
 Requested convergence on RMS density matrix=1.00D-08 within 128 cycles.
 Requested convergence on MAX density matrix=1.00D-06.
 Requested convergence on             energy=1.00D-06.
 No special actions if energy rises.
 Fock matrices will be formed incrementally for  20 cycles.

 Cycle   1  Pass 1  IDiag  1:
 FoFJK:  IHMeth= 1 ICntrl=       0 DoSepK=T KAlg= 0 I1Cent=           0 FoldK=F
 IRaf=         1 NMat=       1 IRICut=       1 DoRegI=T DoRafI=F ISym2E= 0 IDoP0=0 IntGTp=1.
 FoFCou: FMM=T IPFlag=           0 FMFlag=      100000 FMFlg1=        2001
         NFxFlg=           0 DoJE=T BraDBF=F KetDBF=F FulRan=T
         wScrn=  0.000000 ICntrl=       500 IOpCl=  0 I1Cent=           0 NGrid=           0
         NMat0=    1 NMatS0=      1 NMatT0=    0 NMatD0=    1 NMtDS0=    0 NMtDT0=    0
 Symmetry not used in FoFCou.
 FMM levels:  10  Number of levels for PrismC:   9
 E= -1580.97957786662    
 DIIS: error= 4.13D-02 at cycle   1 NSaved=   1.
 NSaved= 1 IEnMin= 1 EnMin= -1580.97957786662     IErMin= 1 ErrMin= 4.13D-02
 ErrMax= 4.13D-02  0.00D+00 EMaxC= 1.00D-01 BMatC= 3.43D+00 BMatP= 3.43D+00
 IDIUse=3 WtCom= 5.87D-01 WtEn= 4.13D-01
 Coeff-Com:  0.100D+01
 Coeff-En:   0.100D+01
 Coeff:      0.100D+01
 Gap=     0.294 Goal=   None    Shift=    0.000
 GapD=    0.294 DampG=1.000 DampE=0.500 DampFc=0.5000 IDamp=-1.
 Damping current iteration by 5.00D-01
 RMSDP=3.83D-03 MaxDP=6.38D-01              OVMax= 1.26D-01

 Cycle   2  Pass 1  IDiag  1:
 RMSU=  1.46D-03    CP:  9.03D-01
 E= -1581.24100897439     Delta-E=       -0.261431107770 Rises=F Damp=T
 DIIS: error= 1.82D-02 at cycle   2 NSaved=   2.
 NSaved= 2 IEnMin= 2 EnMin= -1581.24100897439     IErMin= 2 ErrMin= 1.82D-02
 ErrMax= 1.82D-02  0.00D+00 EMaxC= 1.00D-01 BMatC= 7.11D-01 BMatP= 3.43D+00
 IDIUse=3 WtCom= 8.18D-01 WtEn= 1.82D-01
 Coeff-Com: -0.579D+00 0.158D+01
 Coeff-En:   0.000D+00 0.100D+01
 Coeff:     -0.474D+00 0.147D+01
 Gap=     0.276 Goal=   None    Shift=    0.000
 RMSDP=2.40D-03 MaxDP=4.17D-01 DE=-2.61D-01 OVMax= 1.07D-01

 Cycle   3  Pass 1  IDiag  1:
 RMSU=  1.34D-03    CP:  7.61D-01  1.57D+00
 E= -1581.38137815312     Delta-E=       -0.140369178723 Rises=F Damp=F
 DIIS: error= 8.59D-03 at cycle   3 NSaved=   3.
 NSaved= 3 IEnMin= 3 EnMin= -1581.38137815312     IErMin= 3 ErrMin= 8.59D-03
 ErrMax= 8.59D-03  0.00D+00 EMaxC= 1.00D-01 BMatC= 1.94D-01 BMatP= 7.11D-01
 IDIUse=3 WtCom= 9.14D-01 WtEn= 8.59D-02
 Coeff-Com: -0.360D+00 0.768D+00 0.591D+00
 Coeff-En:   0.000D+00 0.000D+00 0.100D+01
 Coeff:     -0.329D+00 0.702D+00 0.627D+00
 Gap=     0.267 Goal=   None    Shift=    0.000
 RMSDP=6.79D-04 MaxDP=9.93D-02 DE=-1.40D-01 OVMax= 4.99D-02

 Cycle   4  Pass 1  IDiag  1:
 RMSU=  3.74D-04    CP:  7.77D-01  1.78D+00  6.83D-01
 E= -1581.53283095413     Delta-E=       -0.151452801010 Rises=F Damp=F
 DIIS: error= 1.21D-03 at cycle   4 NSaved=   4.
 NSaved= 4 IEnMin= 4 EnMin= -1581.53283095413     IErMin= 4 ErrMin= 1.21D-03
 ErrMax= 1.21D-03  0.00D+00 EMaxC= 1.00D-01 BMatC= 4.42D-03 BMatP= 1.94D-01
 IDIUse=3 WtCom= 9.88D-01 WtEn= 1.21D-02
 Coeff-Com: -0.104D+00 0.222D+00 0.252D+00 0.630D+00
 Coeff-En:   0.000D+00 0.000D+00 0.000D+00 0.100D+01
 Coeff:     -0.103D+00 0.219D+00 0.249D+00 0.635D+00
 Gap=     0.263 Goal=   None    Shift=    0.000
 RMSDP=1.76D-04 MaxDP=3.20D-02 DE=-1.51D-01 OVMax= 9.54D-03

 Cycle   5  Pass 1  IDiag  1:
 RMSU=  1.26D-04    CP:  7.71D-01  1.74D+00  7.35D-01  9.04D-01
 E= -1581.53633895656     Delta-E=       -0.003508002430 Rises=F Damp=F
 DIIS: error= 1.72D-04 at cycle   5 NSaved=   5.
 NSaved= 5 IEnMin= 5 EnMin= -1581.53633895656     IErMin= 5 ErrMin= 1.72D-04
 ErrMax= 1.72D-04  0.00D+00 EMaxC= 1.00D-01 BMatC= 1.54D-04 BMatP= 4.42D-03
 IDIUse=3 WtCom= 9.98D-01 WtEn= 1.72D-03
 Coeff-Com:  0.131D-01-0.282D-01 0.980D-02 0.229D+00 0.776D+00
 Coeff-En:   0.000D+00 0.000D+00 0.000D+00 0.000D+00 0.100D+01
 Coeff:      0.131D-01-0.281D-01 0.978D-02 0.229D+00 0.776D+00
 Gap=     0.262 Goal=   None    Shift=    0.000
 RMSDP=4.94D-05 MaxDP=4.44D-03 DE=-3.51D-03 OVMax= 3.86D-03

 Cycle   6  Pass 1  IDiag  1:
 RMSU=  3.34D-05    CP:  7.72D-01  1.75D+00  7.42D-01  9.91D-01  9.97D-01
 E= -1581.53646560723     Delta-E=       -0.000126650672 Rises=F Damp=F
 DIIS: error= 9.17D-05 at cycle   6 NSaved=   6.
 NSaved= 6 IEnMin= 6 EnMin= -1581.53646560723     IErMin= 6 ErrMin= 9.17D-05
 ErrMax= 9.17D-05  0.00D+00 EMaxC= 1.00D-01 BMatC= 3.57D-05 BMatP= 1.54D-04
 IDIUse=1 WtCom= 1.00D+00 WtEn= 0.00D+00
 Coeff-Com:  0.161D-01-0.345D-01-0.177D-01 0.575D-01 0.404D+00 0.574D+00
 Coeff:      0.161D-01-0.345D-01-0.177D-01 0.575D-01 0.404D+00 0.574D+00
 Gap=     0.262 Goal=   None    Shift=    0.000
 RMSDP=1.84D-05 MaxDP=3.50D-03 DE=-1.27D-04 OVMax= 1.42D-03

 Cycle   7  Pass 1  IDiag  1:
 RMSU=  1.24D-05    CP:  7.72D-01  1.75D+00  7.45D-01  1.02D+00  1.06D+00
                    CP:  9.72D-01
 E= -1581.53650152199     Delta-E=       -0.000035914763 Rises=F Damp=F
 DIIS: error= 1.29D-05 at cycle   7 NSaved=   7.
 NSaved= 7 IEnMin= 7 EnMin= -1581.53650152199     IErMin= 7 ErrMin= 1.29D-05
 ErrMax= 1.29D-05  0.00D+00 EMaxC= 1.00D-01 BMatC= 9.16D-07 BMatP= 3.57D-05
 IDIUse=1 WtCom= 1.00D+00 WtEn= 0.00D+00
 Coeff-Com:  0.283D-02-0.601D-02-0.495D-02-0.515D-02 0.293D-01 0.146D+00
 Coeff-Com:  0.838D+00
 Coeff:      0.283D-02-0.601D-02-0.495D-02-0.515D-02 0.293D-01 0.146D+00
 Coeff:      0.838D+00
 Gap=     0.262 Goal=   None    Shift=    0.000
 RMSDP=6.89D-06 MaxDP=7.16D-04 DE=-3.59D-05 OVMax= 2.84D-04

 Cycle   8  Pass 1  IDiag  1:
 RMSU=  3.63D-06    CP:  7.72D-01  1.75D+00  7.46D-01  1.03D+00  1.08D+00
                    CP:  1.04D+00  1.06D+00
 E= -1581.53650263838     Delta-E=       -0.000001116389 Rises=F Damp=F
 DIIS: error= 4.76D-06 at cycle   8 NSaved=   8.
 NSaved= 8 IEnMin= 8 EnMin= -1581.53650263838     IErMin= 8 ErrMin= 4.76D-06
 ErrMax= 4.76D-06  0.00D+00 EMaxC= 1.00D-01 BMatC= 9.81D-08 BMatP= 9.16D-07
 IDIUse=1 WtCom= 1.00D+00 WtEn= 0.00D+00
 Coeff-Com: -0.124D-03 0.300D-03-0.426D-03-0.568D-02-0.189D-01 0.658D-02
 Coeff-Com:  0.270D+00 0.748D+00
 Coeff:     -0.124D-03 0.300D-03-0.426D-03-0.568D-02-0.189D-01 0.658D-02
 Coeff:      0.270D+00 0.748D+00
 Gap=     0.262 Goal=   None    Shift=    0.000
 RMSDP=2.07D-06 MaxDP=3.11D-04 DE=-1.12D-06 OVMax= 6.46D-05

 Cycle   9  Pass 1  IDiag  1:
 RMSU=  1.18D-06    CP:  7.72D-01  1.75D+00  7.46D-01  1.03D+00  1.09D+00
                    CP:  1.06D+00  1.13D+00  1.13D+00
 E= -1581.53650274864     Delta-E=       -0.000000110259 Rises=F Damp=F
 DIIS: error= 1.96D-06 at cycle   9 NSaved=   9.
 NSaved= 9 IEnMin= 9 EnMin= -1581.53650274864     IErMin= 9 ErrMin= 1.96D-06
 ErrMax= 1.96D-06  0.00D+00 EMaxC= 1.00D-01 BMatC= 1.39D-08 BMatP= 9.81D-08
 IDIUse=1 WtCom= 1.00D+00 WtEn= 0.00D+00
 Coeff-Com: -0.332D-03 0.711D-03 0.345D-03-0.172D-02-0.102D-01-0.115D-01
 Coeff-Com:  0.227D-01 0.282D+00 0.718D+00
 Coeff:     -0.332D-03 0.711D-03 0.345D-03-0.172D-02-0.102D-01-0.115D-01
 Coeff:      0.227D-01 0.282D+00 0.718D+00
 Gap=     0.262 Goal=   None    Shift=    0.000
 RMSDP=7.76D-07 MaxDP=1.03D-04 DE=-1.10D-07 OVMax= 2.74D-05

 Cycle  10  Pass 1  IDiag  1:
 RMSU=  3.21D-07    CP:  7.72D-01  1.75D+00  7.46D-01  1.03D+00  1.09D+00
                    CP:  1.07D+00  1.16D+00  1.24D+00  1.19D+00
 E= -1581.53650276520     Delta-E=       -0.000000016559 Rises=F Damp=F
 DIIS: error= 9.73D-07 at cycle  10 NSaved=  10.
 NSaved=10 IEnMin=10 EnMin= -1581.53650276520     IErMin=10 ErrMin= 9.73D-07
 ErrMax= 9.73D-07  0.00D+00 EMaxC= 1.00D-01 BMatC= 1.94D-09 BMatP= 1.39D-08
 IDIUse=1 WtCom= 1.00D+00 WtEn= 0.00D+00
 Coeff-Com: -0.922D-04 0.193D-03 0.160D-03 0.947D-04-0.115D-02-0.484D-02
 Coeff-Com: -0.283D-01-0.104D-01 0.258D+00 0.787D+00
 Coeff:     -0.922D-04 0.193D-03 0.160D-03 0.947D-04-0.115D-02-0.484D-02
 Coeff:     -0.283D-01-0.104D-01 0.258D+00 0.787D+00
 Gap=     0.262 Goal=   None    Shift=    0.000
 RMSDP=3.73D-07 MaxDP=4.07D-05 DE=-1.66D-08 OVMax= 1.73D-05

 Cycle  11  Pass 1  IDiag  1:
 RMSU=  1.40D-07    CP:  7.72D-01  1.75D+00  7.46D-01  1.03D+00  1.09D+00
                    CP:  1.07D+00  1.17D+00  1.30D+00  1.36D+00  1.11D+00
 E= -1581.53650276807     Delta-E=       -0.000000002865 Rises=F Damp=F
 DIIS: error= 4.57D-07 at cycle  11 NSaved=  11.
 NSaved=11 IEnMin=11 EnMin= -1581.53650276807     IErMin=11 ErrMin= 4.57D-07
 ErrMax= 4.57D-07  0.00D+00 EMaxC= 1.00D-01 BMatC= 3.66D-10 BMatP= 1.94D-09
 IDIUse=1 WtCom= 1.00D+00 WtEn= 0.00D+00
 Coeff-Com:  0.989D-06-0.372D-05 0.251D-04 0.256D-03 0.783D-03-0.670D-03
 Coeff-Com: -0.150D-01-0.425D-01 0.218D-01 0.346D+00 0.690D+00
 Coeff:      0.989D-06-0.372D-05 0.251D-04 0.256D-03 0.783D-03-0.670D-03
 Coeff:     -0.150D-01-0.425D-01 0.218D-01 0.346D+00 0.690D+00
 Gap=     0.262 Goal=   None    Shift=    0.000
 RMSDP=1.30D-07 MaxDP=1.65D-05 DE=-2.86D-09 OVMax= 6.81D-06

 Cycle  12  Pass 1  IDiag  1:
 RMSU=  5.34D-08    CP:  7.72D-01  1.75D+00  7.46D-01  1.03D+00  1.09D+00
                    CP:  1.07D+00  1.17D+00  1.32D+00  1.41D+00  1.27D+00
                    CP:  1.15D+00
 E= -1581.53650276857     Delta-E=       -0.000000000502 Rises=F Damp=F
 DIIS: error= 1.82D-07 at cycle  12 NSaved=  12.
 NSaved=12 IEnMin=12 EnMin= -1581.53650276857     IErMin=12 ErrMin= 1.82D-07
 ErrMax= 1.82D-07  0.00D+00 EMaxC= 1.00D-01 BMatC= 5.88D-11 BMatP= 3.66D-10
 IDIUse=1 WtCom= 1.00D+00 WtEn= 0.00D+00
 Coeff-Com:  0.133D-04-0.284D-04-0.136D-04 0.866D-04 0.476D-03 0.514D-03
 Coeff-Com: -0.705D-03-0.149D-01-0.372D-01-0.525D-02 0.282D+00 0.775D+00
 Coeff:      0.133D-04-0.284D-04-0.136D-04 0.866D-04 0.476D-03 0.514D-03
 Coeff:     -0.705D-03-0.149D-01-0.372D-01-0.525D-02 0.282D+00 0.775D+00
 Gap=     0.262 Goal=   None    Shift=    0.000
 RMSDP=5.20D-08 MaxDP=5.97D-06 DE=-5.02D-10 OVMax= 3.88D-06

 Cycle  13  Pass 1  IDiag  1:
 RMSU=  1.91D-08    CP:  7.72D-01  1.75D+00  7.46D-01  1.03D+00  1.09D+00
                    CP:  1.07D+00  1.17D+00  1.33D+00  1.44D+00  1.33D+00
                    CP:  1.30D+00  1.14D+00
 E= -1581.53650276857     Delta-E=       -0.000000000005 Rises=F Damp=F
 DIIS: error= 5.36D-08 at cycle  13 NSaved=  13.
 NSaved=13 IEnMin=13 EnMin= -1581.53650276857     IErMin=13 ErrMin= 5.36D-08
 ErrMax= 5.36D-08  0.00D+00 EMaxC= 1.00D-01 BMatC= 7.44D-12 BMatP= 5.88D-11
 IDIUse=1 WtCom= 1.00D+00 WtEn= 0.00D+00
 Coeff-Com:  0.347D-05-0.717D-05-0.765D-05-0.164D-04 0.139D-04 0.231D-03
 Coeff-Com:  0.225D-02 0.254D-02-0.153D-01-0.593D-01-0.301D-01 0.241D+00
 Coeff-Com:  0.859D+00
 Coeff:      0.347D-05-0.717D-05-0.765D-05-0.164D-04 0.139D-04 0.231D-03
 Coeff:      0.225D-02 0.254D-02-0.153D-01-0.593D-01-0.301D-01 0.241D+00
 Coeff:      0.859D+00
 Gap=     0.262 Goal=   None    Shift=    0.000
 RMSDP=2.07D-08 MaxDP=2.67D-06 DE=-4.55D-12 OVMax= 2.17D-06

 Cycle  14  Pass 1  IDiag  1:
 RMSU=  7.80D-09    CP:  7.72D-01  1.75D+00  7.46D-01  1.03D+00  1.09D+00
                    CP:  1.07D+00  1.17D+00  1.33D+00  1.44D+00  1.35D+00
                    CP:  1.37D+00  1.30D+00  1.23D+00
 E= -1581.53650276875     Delta-E=       -0.000000000176 Rises=F Damp=F
 DIIS: error= 2.06D-08 at cycle  14 NSaved=  14.
 NSaved=14 IEnMin=14 EnMin= -1581.53650276875     IErMin=14 ErrMin= 2.06D-08
 ErrMax= 2.06D-08  0.00D+00 EMaxC= 1.00D-01 BMatC= 1.27D-12 BMatP= 7.44D-12
[...]
 Alpha virt. eigenvalues --    1.48422   1.48547   1.48881   1.49275   1.49587
 Alpha virt. eigenvalues --    1.49872   1.50005   1.50326   1.50399   1.50712
 Alpha virt. eigenvalues --    1.51238   1.51484   1.51898   1.52026   1.52285
 Alpha virt. eigenvalues --    1.52544   1.52843   1.53174   1.53224   1.53354
 Alpha virt. eigenvalues --    1.53836   1.54029   1.54407   1.54874   1.54995
 Alpha virt. eigenvalues --    1.55284   1.55681   1.55825   1.56189   1.56653
 Alpha virt. eigenvalues --    1.57020   1.57233   1.57449   1.57759   1.58111
 Alpha virt. eigenvalues --    1.58392   1.58716   1.58884   1.59060   1.59191
 Alpha virt. eigenvalues --    1.59538   1.59582   1.60167   1.60239   1.60528
 Alpha virt. eigenvalues --    1.61152   1.61303   1.61393   1.61634   1.61887
 Alpha virt. eigenvalues --    1.62296   1.62903   1.63594   1.63906   1.64117
 Alpha virt. eigenvalues --    1.64284   1.64508   1.64751   1.64927   1.65032
 Alpha virt. eigenvalues --    1.65878   1.65964   1.66620   1.66782   1.66866
 Alpha virt. eigenvalues --    1.67564   1.67689   1.67949   1.68244   1.68535
 Alpha virt. eigenvalues --    1.68874   1.69331   1.69617   1.69907   1.70111
 Alpha virt. eigenvalues --    1.70412   1.70776   1.71146   1.71209   1.71530
 Alpha virt. eigenvalues --    1.71916   1.72350   1.72839   1.72937   1.73238
 Alpha virt. eigenvalues --    1.73358   1.73916   1.74079   1.74638   1.74938
 Alpha virt. eigenvalues --    1.75362   1.75682   1.76033   1.76187   1.76598
 Alpha virt. eigenvalues --    1.76910   1.77339   1.77929   1.78367   1.78965
 Alpha virt. eigenvalues --    1.80002   1.80141   1.80404   1.80747   1.81590
 Alpha virt. eigenvalues --    1.82013   1.82325   1.82823   1.83523   1.84095
 Alpha virt. eigenvalues --    1.84366   1.84615   1.85828   1.85908   1.86434
 Alpha virt. eigenvalues --    1.86583   1.87169   1.87575   1.87854   1.88711
 Alpha virt. eigenvalues --    1.90071   1.90359   1.90641   1.91316   1.91777
 Alpha virt. eigenvalues --    1.92044   1.92610   1.93232   1.94027   1.94657
 Alpha virt. eigenvalues --    1.96000   1.96399   1.96596   1.97080   1.98283
 Alpha virt. eigenvalues --    1.98732   1.99502   2.00109   2.00158   2.00884
 Alpha virt. eigenvalues --    2.01046   2.01783   2.03008   2.04080   2.05313
 Alpha virt. eigenvalues --    2.06036   2.06310   2.06679   2.07331   2.08202
 Alpha virt. eigenvalues --    2.08657   2.10095   2.10320   2.10977   2.12078
 Alpha virt. eigenvalues --    2.12438   2.12762   2.14059   2.14474   2.14609
 Alpha virt. eigenvalues --    2.15149   2.16264   2.16793   2.18240   2.19332
 Alpha virt. eigenvalues --    2.20322   2.22536   2.23038   2.23893   2.25712
 Alpha virt. eigenvalues --    2.26075   2.27330   2.27378   2.28296   2.30376
 Alpha virt. eigenvalues --    2.30855   2.33085   2.36018   2.36721   2.38900
 Alpha virt. eigenvalues --    2.45372   2.48477   2.51150   2.53908   2.54739
 Alpha virt. eigenvalues --    2.55630   2.57934   2.59597   2.65970   2.71556
 Alpha virt. eigenvalues --    2.74425   2.74840   2.76118   2.77074   2.84594
 Alpha virt. eigenvalues --    2.85283   2.86596   2.87409   2.87632   2.88201
 Alpha virt. eigenvalues --    2.90257   2.92115   2.93644   2.94715   2.95050
 Alpha virt. eigenvalues --    2.95696   2.96188   2.97696   2.98693   2.98957
 Alpha virt. eigenvalues --    2.99409   2.99526   3.00793   3.01066   3.01544
 Alpha virt. eigenvalues --    3.02071   3.02974   3.03689   3.04464   3.04849
 Alpha virt. eigenvalues --    3.05228   3.05761   3.06468   3.06985   3.07905
 Alpha virt. eigenvalues --    3.08555   3.08735   3.09562   3.10690   3.11040
 Alpha virt. eigenvalues --    3.12278   3.13181   3.14165   3.14392   3.16547
 Alpha virt. eigenvalues --    3.16789   3.17896   3.18360   3.19222   3.19615
 Alpha virt. eigenvalues --    3.20371   3.20840   3.21394   3.21821   3.22163
 Alpha virt. eigenvalues --    3.22479   3.23273   3.23952   3.24702   3.24959
 Alpha virt. eigenvalues --    3.25638   3.26382   3.27882   3.28146   3.28486
 Alpha virt. eigenvalues --    3.29310   3.29625   3.30263   3.30583   3.30840
 Alpha virt. eigenvalues --    3.31654   3.32081   3.32271   3.32932   3.33550
 Alpha virt. eigenvalues --    3.33748   3.34855   3.35624   3.35958   3.36512
 Alpha virt. eigenvalues --    3.36884   3.37393   3.38209   3.38498   3.39134
 Alpha virt. eigenvalues --    3.39429   3.40436   3.40763   3.41436   3.41855
 Alpha virt. eigenvalues --    3.41954   3.42607   3.43151   3.43717   3.43802
 Alpha virt. eigenvalues --    3.43992   3.44558   3.45122   3.45390   3.45847
 Alpha virt. eigenvalues --    3.46178   3.46625   3.46943   3.47711   3.47979
 Alpha virt. eigenvalues --    3.48287   3.48829   3.48966   3.49629   3.49886
 Alpha virt. eigenvalues --    3.50516   3.51131   3.51650   3.51876   3.52274
 Alpha virt. eigenvalues --    3.52746   3.53299   3.53624   3.54060   3.54237
 Alpha virt. eigenvalues --    3.54522   3.54871   3.55334   3.55569   3.55805
 Alpha virt. eigenvalues --    3.56355   3.56855   3.57227   3.58262   3.58659
 Alpha virt. eigenvalues --    3.59780   3.60264   3.60822   3.60904   3.61139
 Alpha virt. eigenvalues --    3.61659   3.61967   3.62508   3.62964   3.63130
 Alpha virt. eigenvalues --    3.63669   3.63860   3.64095   3.64761   3.65444
 Alpha virt. eigenvalues --    3.65821   3.66361   3.66618   3.66903   3.67242
 Alpha virt. eigenvalues --    3.67869   3.67970   3.68497   3.68870   3.69328
 Alpha virt. eigenvalues --    3.69624   3.69926   3.70400   3.71021   3.71056
 Alpha virt. eigenvalues --    3.71687   3.72086   3.72637   3.72961   3.73260
 Alpha virt. eigenvalues --    3.73466   3.73683   3.74032   3.74479   3.74821
 Alpha virt. eigenvalues --    3.75248   3.75520   3.75715   3.76325   3.76936
 Alpha virt. eigenvalues --    3.77320   3.77722   3.78198   3.78564   3.78856
 Alpha virt. eigenvalues --    3.79030   3.79518   3.79662   3.80428   3.80957
 Alpha virt. eigenvalues --    3.81261   3.81387   3.81925   3.82762   3.82885
 Alpha virt. eigenvalues --    3.83382   3.83599   3.83740   3.84294   3.84879
 Alpha virt. eigenvalues --    3.85304   3.85672   3.86148   3.86222   3.86710
 Alpha virt. eigenvalues --    3.87728   3.88178   3.88751   3.89282   3.89596
 Alpha virt. eigenvalues --    3.89956   3.90522   3.90994   3.91210   3.91735
 Alpha virt. eigenvalues --    3.92133   3.92752   3.93196   3.93545   3.94079
 Alpha virt. eigenvalues --    3.94587   3.95209   3.95351   3.95731   3.96599
 Alpha virt. eigenvalues --    3.97246   3.97556   3.97776   3.98705   3.99023
 Alpha virt. eigenvalues --    3.99851   4.00210   4.00488   4.01035   4.01369
 Alpha virt. eigenvalues --    4.02238   4.02429   4.02796   4.02990   4.03179
 Alpha virt. eigenvalues --    4.03701   4.04169   4.05152   4.05397   4.05768
 Alpha virt. eigenvalues --    4.06315   4.06477   4.06759   4.06969   4.07623
 Alpha virt. eigenvalues --    4.07901   4.08567   4.08968   4.09497   4.10234
 Alpha virt. eigenvalues --    4.10516   4.10646   4.11054   4.11518   4.11869
 Alpha virt. eigenvalues --    4.12297   4.12343   4.12662   4.13546   4.13991
 Alpha virt. eigenvalues --    4.14367   4.15103   4.15376   4.15595   4.16111
 Alpha virt. eigenvalues --    4.16600   4.16895   4.17180   4.17537   4.18290
 Alpha virt. eigenvalues --    4.18374   4.18917   4.19255   4.19444   4.19816
 Alpha virt. eigenvalues --    4.20181   4.20420   4.20781   4.21034   4.21271
 Alpha virt. eigenvalues --    4.21543   4.22170   4.22228   4.22555   4.23326
 Alpha virt. eigenvalues --    4.23764   4.24268   4.24437   4.24972   4.25464
 Alpha virt. eigenvalues --    4.25721   4.26073   4.26500   4.27506   4.27690
 Alpha virt. eigenvalues --    4.27866   4.28164   4.28383   4.29000   4.29262
 Alpha virt. eigenvalues --    4.29638   4.29807   4.30195   4.30541   4.31587
 Alpha virt. eigenvalues --    4.32020   4.32327   4.32736   4.33101   4.33895
 Alpha virt. eigenvalues --    4.34230   4.35204   4.35543   4.35793   4.36132
 Alpha virt. eigenvalues --    4.36458   4.36927   4.37111   4.37408   4.37909
 Alpha virt. eigenvalues --    4.38301   4.38972   4.39395   4.39738   4.40163
 Alpha virt. eigenvalues --    4.40523   4.41050   4.41515   4.42090   4.42790
 Alpha virt. eigenvalues --    4.43142   4.43476   4.43931   4.44403   4.44554
 Alpha virt. eigenvalues --    4.44798   4.45697   4.45812   4.46629   4.46852
 Alpha virt. eigenvalues --    4.47160   4.48175   4.48634   4.49381   4.49754
 Alpha virt. eigenvalues --    4.50074   4.50767   4.51040   4.51815   4.52198
 Alpha virt. eigenvalues --    4.53028   4.53695   4.54631   4.55396   4.55776
 Alpha virt. eigenvalues --    4.56665   4.57495   4.58847   4.59495   4.60224
 Alpha virt. eigenvalues --    4.61147   4.62045   4.62872   4.63943   4.64138
 Alpha virt. eigenvalues --    4.65202   4.66823   4.67850   4.68364   4.68854
 Alpha virt. eigenvalues --    4.69962   4.71745   4.73128   4.74245   4.76316
 Alpha virt. eigenvalues --    4.76556   4.78461   4.79964   4.82421   4.83585
 Alpha virt. eigenvalues --    4.84858   4.87224   4.88802   4.98625   5.00850
 Alpha virt. eigenvalues --    5.02305   5.02803   5.03523   5.03959   5.04955
 Alpha virt. eigenvalues --    5.05527   5.05602   5.05991   5.07321   5.12944
 Alpha virt. eigenvalues --    5.13008   5.13476   5.14170   5.15274   5.15572
 Alpha virt. eigenvalues --    5.16140   5.16386   5.16515   5.17368   5.18291
 Alpha virt. eigenvalues --    5.18639   5.19040   5.19127   5.19757   5.21103
 Alpha virt. eigenvalues --    5.21649   5.22202   5.22755   5.22952   5.23086
 Alpha virt. eigenvalues --    5.23832   5.25449   5.26400   5.27133   5.28265
 Alpha virt. eigenvalues --    5.33422   5.34482   5.35170   5.36138   5.37411
 Alpha virt. eigenvalues --    5.40825   5.41655   5.46692   5.47265   5.47674
 Alpha virt. eigenvalues --    5.47899   5.48619   5.49522   5.51997   5.52365
 Alpha virt. eigenvalues --    5.56614   5.57697   5.62436   5.68398   5.79646
 Alpha virt. eigenvalues --    5.81087   5.82366   5.83303   5.83937   5.86212
 Alpha virt. eigenvalues --    5.90533   5.92500   5.96515   6.26454   6.30173
 Alpha virt. eigenvalues --    6.31247   6.36310   7.03591   7.08080   7.09195
 Alpha virt. eigenvalues --    7.10713   7.13652   7.16071   7.18094   7.20525
 Alpha virt. eigenvalues --    7.21955   7.25255   7.29014   7.31265   7.35295
 Alpha virt. eigenvalues --    7.39310   7.46410   7.48889   7.51661   7.53554
 Alpha virt. eigenvalues --    7.58648   7.62492   7.65865   7.68860   7.73376
 Alpha virt. eigenvalues --    7.75749   7.77500  23.91142  23.94511  24.04030
 Alpha virt. eigenvalues --   24.04939  24.09128  24.10064  24.12937  24.13873
 Alpha virt. eigenvalues --   24.16927  24.18643  24.18951  24.19961  24.20725
 Alpha virt. eigenvalues --   24.21462  24.21832  24.21975  24.22814  24.23461
 Alpha virt. eigenvalues --   24.25141  24.33189  24.34194  24.34679  24.36095
 Alpha virt. eigenvalues --   24.36583  24.39092  24.43305  24.47376  24.47887
 Alpha virt. eigenvalues --   35.62899  35.65775  50.16701  50.22327  50.32461
 Alpha virt. eigenvalues --   50.35719  50.40316
          Condensed to atoms (all electrons):
 Mulliken charges:
               1
     1  C   -0.465680
     2  C   -0.221246
     3  H    0.123374
     4  H    0.123309
     5  H    0.111166
     6  C    0.092558
     7  H    0.129735
     8  H    0.114465
     9  C   -0.523835
    10  H    0.119428
    11  H    0.146028
    12  H    0.123580
    13  C    0.089520
    14  C   -0.206413
    15  H    0.106192
    16  H    0.126219
    17  H    0.119631
    18  C   -0.455107
    19  H    0.122860
    20  H    0.112204
    21  H    0.124940
    22  C    0.547184
    23  C   -0.265733
    24  C   -0.436486
    25  C   -0.337866
    26  H    0.127065
    27  C   -0.346560
    28  H    0.139959
    29  C    0.107493
    30  H    0.142898
    31  H    0.189659
    32  C    0.344497
    33  C   -0.292375
    34  C   -0.301116
    35  C   -0.283123
    36  H    0.128145
    37  C   -0.251990
    38  H    0.138816
    39  C    0.007236
    40  H    0.134703
    41  H    0.188902
    42  C   -0.345581
    43  H    0.223828
    44  H    0.192452
    45  C   -0.943997
    46  H    0.200928
    47  H    0.256758
    48  C   -0.226011
    49  H    0.143614
    50  H    0.264102
    51  H    0.148289
    52  C   -0.271308
    53  H    0.153145
    54  H    0.266059
    55  H    0.148946
    56  C   -0.186760
    57  H    0.160368
    58  H    0.182502
    59  H    0.157185
    60  C   -0.202133
    61  H    0.144902
    62  H    0.172091
    63  H    0.282098
    64  C   -0.189894
    65  H    0.237254
    66  H    0.157318
    67  H    0.148470
    68  C   -0.205148
    69  H    0.177874
    70  H    0.182827
    71  H    0.158613
    72  N   -0.041463
    73  N    0.223217
    74  C    0.900475
    75  O   -0.744537
    76  O   -0.824332
    77  O   -0.825475
    78  O   -0.643058
    79  H    0.242789
    80  H    0.408046
    81  O   -0.579271
    82  H    0.352076
    83  H    0.248508
 Sum of Mulliken charges =  -0.00000
 Mulliken charges with hydrogens summed into heavy atoms:
               1
     1  C   -0.107831
     2  C    0.022954
     6  C    0.211986
     9  C   -0.254228
    13  C    0.195712
    14  C    0.039436
    18  C   -0.095103
    22  C    0.547184
    23  C   -0.138668
    24  C   -0.296527
    25  C   -0.194969
    27  C   -0.156901
    29  C    0.107493
    32  C    0.344497
    33  C   -0.164231
    34  C   -0.162300
    35  C   -0.148421
    37  C   -0.063088
    39  C    0.007236
    42  C    0.070699
    45  C   -0.486311
    48  C    0.329995
    52  C    0.296842
    56  C    0.313295
    60  C    0.396958
    64  C    0.353148
    68  C    0.314166
    72  N   -0.041463
    73  N    0.223217
    74  C    0.900475
    75  O   -0.744537
    76  O   -0.824332
    77  O   -0.825475
    78  O    0.007777
    81  O    0.021313
 Electronic spatial extent (au):  <R**2>=          16832.3510
 Charge=             -0.0000 electrons
 Dipole moment (field-independent basis, Debye):
    X=             -6.8466    Y=              2.2383    Z=             -9.2436  Tot=             11.7188
 Quadrupole moment (field-independent basis, Debye-Ang):
   XX=           -234.9300   YY=           -164.7278   ZZ=           -231.0604
   XY=              1.7550   XZ=            -30.9889   YZ=              6.2723
 Traceless Quadrupole moment (field-independent basis, Debye-Ang):
   XX=            -24.6906   YY=             45.5116   ZZ=            -20.8210
   XY=              1.7550   XZ=            -30.9889   YZ=              6.2723
 Octapole moment (field-independent basis, Debye-Ang**2):
  XXX=           -107.9297  YYY=             43.4812  ZZZ=            -69.0457  XYY=            171.4153
  XXY=             -5.5043  XXZ=           -108.6404  XZZ=            -29.1271  YZZ=             38.6092
  YYZ=            -42.1881  XYZ=             27.7632
 Hexadecapole moment (field-independent basis, Debye-Ang**3):
 XXXX=         -12583.4649 YYYY=          -7147.4023 ZZZZ=          -2436.5839 XXXY=            -11.8965
 XXXZ=           -470.8795 YYYX=             55.0855 YYYZ=            -27.3744 ZZZX=           -188.7990
 ZZZY=             91.9509 XXYY=          -3017.7361 XXZZ=          -2489.1816 YYZZ=          -1711.6097
 XXYZ=             50.2453 YYXZ=           -118.0145 ZZXY=             55.7270
 N-N= 4.369423164567D+03 E-N=-1.242618554873D+04  KE= 1.575071607558D+03
 No NMR shielding tensors so no spin-rotation constants.
 Leave Link  601 at Fri Mar 15 13:16:23 2024, MaxMem=  1073741824 cpu:              14.4 elap:               0.9
 (Enter /packages/apps/gaussian/g16/g16/l9999.exe)
 1\1\GINC-C071\FOpt\RwB97XD\6-311+G(2d,2p)\C28H48N2O5\MDTURNE9\15-Mar-2
 024\0\\#p opt=calcfc wb97xd/6-311+g(2d,2p)\\carb2water2\\0,1\C,-4.7114
 605249,3.6312495247,0.7847056629\C,-4.8033940777,2.1717649905,1.212940
 5065\H,-5.1874773916,4.2829214082,1.5172982964\H,-3.6737413057,3.94782
 08198,0.6770117083\H,-5.2078135343,3.7887106365,-0.1751807389\C,-4.203
 6611388,1.1846750115,0.196478923\H,-4.2989696323,2.0377833166,2.173994
 0789\H,-5.8506504793,1.9052895874,1.3753920333\C,-4.4828997022,-0.2591
 541726,0.649805474\H,-4.7301915179,1.3327769142,-0.7524997938\H,-4.015
 8339655,-0.4380172641,1.6223218556\H,-5.5599017028,-0.3330125098,0.821
 5110906\C,-4.0846132416,-1.3860243259,-0.32206883\C,-4.8510416954,-2.6
 749493708,0.0148870779\H,-4.3893713465,-1.0801286563,-1.3286051129\H,-
 4.608892611,-2.9811564705,1.0364173859\H,-5.9200557748,-2.4492761599,0
 .0102824737\C,-4.5696319526,-3.8227112293,-0.9471415232\H,-5.167621877
 2,-4.6987557191,-0.6962383905\H,-4.8080967473,-3.5374374485,-1.9738724
 542\H,-3.5190591055,-4.1130008887,-0.9200667353\C,-2.5871701951,-1.618
 4961648,-0.3536833545\C,-1.85180915,-1.3622957524,-1.5030976382\C,-1.8
 994238197,-2.0280753879,0.7870034881\C,-0.4688065751,-1.4469613203,-1.
 4976635806\H,-2.3629009536,-1.0355497142,-2.3997374278\C,-0.5176799885
 ,-2.1014462815,0.8046182748\H,-2.4449593121,-2.2327666077,1.7000467802
 \C,0.2163010794,-1.7987054355,-0.3411876945\H,0.0879164356,-1.18275062
 39,-2.3888486068\H,0.0102369903,-2.3230916148,1.7254407083\C,-2.740337
 514,1.4895910545,-0.0531203562\C,-2.3196344599,2.0194581807,-1.2672385
 967\C,-1.776624164,1.239172072,0.9209128563\C,-0.9752014795,2.25859141
 3,-1.5141915286\H,-3.0496634178,2.2209529277,-2.0416999522\C,-0.432802
 0081,1.4525445994,0.6754564604\H,-2.0719564524,0.8163892638,1.87233100
 89\C,-0.0159518723,1.9700426614,-0.5505984228\H,-0.6693590006,2.638696
 2591,-2.4821042799\H,0.3219282635,1.1775095976,1.4048124537\C,1.450861
 8029,2.1077282885,-0.8290037599\H,2.015797599,1.369400309,-0.260103046
 5\H,1.677256748,2.003800856,-1.8884057695\C,1.711411204,-1.7044029712,
 -0.2928381499\H,2.0894881933,-1.0643339892,-1.0871827789\H,2.030299204
 4,-1.3047425169,0.6648372261\C,3.5182499158,3.3744822868,-0.7399658592
 \H,3.9788997155,4.3114617427,-0.4341946381\H,3.9448415077,2.5068737415
 ,-0.2175216152\H,3.6156323154,3.2357886389,-1.814388322\C,1.9270772787
 ,3.6264038811,1.0719610271\H,0.8759079326,3.7649469454,1.3092428874\H,
 2.3138893771,2.718536017,1.5526933958\H,2.4913110937,4.5144083224,1.34
 80220204\C,1.4266275163,4.5674433661,-1.1208953729\H,1.5498415466,4.42
 24231836,-2.191757132\H,0.369854309,4.6016299808,-0.8718424085\H,1.911
 8678047,5.4912816632,-0.8150835228\C,3.9257680254,-2.701740193,-0.5082
 686307\H,4.467065953,-3.6414979099,-0.5990455929\H,4.0969325774,-2.066
 1116509,-1.3729725944\H,4.1951122322,-2.1525220514,0.4037201369\C,2.19
 90229854,-3.9109541946,0.7090956639\H,2.3990683817,-3.3557259737,1.622
 6507549\H,1.1581505708,-4.2209358728,0.6900744423\H,2.8473284203,-4.77
 9985882,0.62634741\C,2.058519186,-3.6933440665,-1.7123130535\H,0.99864
 05603,-3.9284803391,-1.6740518157\H,2.2601645974,-3.0215892027,-2.5431
 166338\H,2.6422055366,-4.6043167471,-1.8211954444\N,2.0620593884,3.438
 175951,-0.4052867631\N,2.4602659686,-3.0194929316,-0.4550548252\C,3.59
 2138944,0.1757371293,1.3235504563\O,3.9907093627,-0.9077177572,1.87587
 90597\O,2.5331921282,0.7741229744,1.7404779379\O,4.2195235956,0.640098
 5462,0.2863332997\O,3.6965228583,0.2001326946,-2.2073999197\H,4.541841
 3656,0.2117879171,-2.6534278076\H,3.9171368721,0.3411556654,-1.2343974
 107\O,1.863087925,-1.7372643574,3.1748625282\H,2.7572566928,-1.4779186
 388,2.8124417574\H,1.4560337264,-0.8672619752,3.168403283\\Version=ES6
 4L-G16RevA.03\State=1-A\HF=-1581.5365033\RMSD=7.249e-09\RMSF=4.338e-07
 \Dipole=-2.6940531,0.87948,-3.6367216\Quadrupole=-18.3579721,33.837885
 9,-15.4799138,1.2824587,-23.0414469,4.6534825\PG=C01 [X(C28H48N2O5)]\\
 @


 ONLY THE DAY DAWNS TO WHICH YOU ARE AWAKE.

                                 -- THOREAU
 Job cpu time:      19 days 16 hours 23 minutes 11.6 seconds.
 Elapsed time:       1 days  0 hours  1 minutes  8.1 seconds.
 File lengths (MBytes):  RWF=  36467 Int=      0 D2E=      0 Chk=    151 Scr=      1
 Normal termination of Gaussian 16 at Fri Mar 15 13:16:24 2024.
