 Entering Gaussian System, Link 0=g16
 Input=4water.gjf
 Output=4water.log
 Initial command:
 /packages/apps/gaussian/g16/g16/l1.exe "/scratch/mdturne9/3-5-methyl/geo/Gau-407693.inp" -scrdir="/scratch/mdturne9/3-5-methyl/geo/"
 Entering Link 1 = /packages/apps/gaussian/g16/g16/l1.exe PID=    407694.
  
 Copyright (c) 1988,1990,1992,1993,1995,1998,2003,2009,2016,
            Gaussian, Inc.  All Rights Reserved.
  
 This is part of the Gaussian(R) 16 program.  It is based on
 the Gaussian(R) 09 system (copyright 2009, Gaussian, Inc.),
 the Gaussian(R) 03 system (copyright 2003, Gaussian, Inc.),
 the Gaussian(R) 98 system (copyright 1998, Gaussian, Inc.),
 the Gaussian(R) 94 system (copyright 1995, Gaussian, Inc.),
 the Gaussian 92(TM) system (copyright 1992, Gaussian, Inc.),
 the Gaussian 90(TM) system (copyright 1990, Gaussian, Inc.),
 the Gaussian 88(TM) system (copyright 1988, Gaussian, Inc.),
 the Gaussian 86(TM) system (copyright 1986, Carnegie Mellon
 University), and the Gaussian 82(TM) system (copyright 1983,
 Carnegie Mellon University). Gaussian is a federally registered
 trademark of Gaussian, Inc.
  
 This software contains proprietary and confidential information,
 including trade secrets, belonging to Gaussian, Inc.
  
 This software is provided under written license and may be
 used, copied, transmitted, or stored only in accord with that
 written license.
  
 The following legend is applicable only to US Government
 contracts under FAR:
  
                    RESTRICTED RIGHTS LEGEND
  
 Use, reproduction and disclosure by the US Government is
 subject to restrictions as set forth in subparagraphs (a)
 and (c) of the Commercial Computer Software - Restricted
 Rights clause in FAR 52.227-19.
  
 Gaussian, Inc.
 340 Quinnipiac St., Bldg. 40, Wallingford CT 06492
  
  
 ---------------------------------------------------------------
 Warning -- This program may not be used in any manner that
 competes with the business of Gaussian, Inc. or will provide
 assistance to any competitor of Gaussian, Inc.  The licensee
 of this program is prohibited from giving any competitor of
 Gaussian, Inc. access to this program.  By using this program,
 the user acknowledges that Gaussian, Inc. is engaged in the
 business of creating and licensing software in the field of
 computational chemistry and represents and warrants to the
 licensee that it is not a competitor of Gaussian, Inc. and that
 it will not use this program in any manner prohibited above.
 ---------------------------------------------------------------
  

 Cite this work as:
 Gaussian 16, Revision A.03,
 M. J. Frisch, G. W. Trucks, H. B. Schlegel, G. E. Scuseria, 
 M. A. Robb, J. R. Cheeseman, G. Scalmani, V. Barone, 
 G. A. Petersson, H. Nakatsuji, X. Li, M. Caricato, A. V. Marenich, 
 J. Bloino, B. G. Janesko, R. Gomperts, B. Mennucci, H. P. Hratchian, 
 J. V. Ortiz, A. F. Izmaylov, J. L. Sonnenberg, D. Williams-Young, 
 F. Ding, F. Lipparini, F. Egidi, J. Goings, B. Peng, A. Petrone, 
 T. Henderson, D. Ranasinghe, V. G. Zakrzewski, J. Gao, N. Rega, 
 G. Zheng, W. Liang, M. Hada, M. Ehara, K. Toyota, R. Fukuda, 
 J. Hasegawa, M. Ishida, T. Nakajima, Y. Honda, O. Kitao, H. Nakai, 
 T. Vreven, K. Throssell, J. A. Montgomery, Jr., J. E. Peralta, 
 F. Ogliaro, M. J. Bearpark, J. J. Heyd, E. N. Brothers, K. N. Kudin, 
 V. N. Staroverov, T. A. Keith, R. Kobayashi, J. Normand, 
 K. Raghavachari, A. P. Rendell, J. C. Burant, S. S. Iyengar, 
 J. Tomasi, M. Cossi, J. M. Millam, M. Klene, C. Adamo, R. Cammi, 
 J. W. Ochterski, R. L. Martin, K. Morokuma, O. Farkas, 
 J. B. Foresman, and D. J. Fox, Gaussian, Inc., Wallingford CT, 2016.
 
 ******************************************
 Gaussian 16:  ES64L-G16RevA.03 25-Dec-2016
                14-Mar-2024 
 ******************************************
 %nprocshared=20
 Will use up to   20 processors via shared memory.
 %mem=8GB
 %chk=4water.chk
 -----------------------------------------------------
 #p opt=calcfc wb97xd/6-311+g(2d,2p) geom=connectivity
 -----------------------------------------------------
 1/10=4,18=20,19=15,26=3,38=1,57=2/1,3;
 2/9=110,12=2,17=6,18=5,40=1/2;
 3/5=4,6=6,7=212,11=2,25=1,30=1,71=2,74=-58,140=1/1,2,3;
 4//1;
 5/5=2,38=5/2;
 8/6=4,10=90,11=11/1;
 11/6=1,8=1,9=11,15=111,16=1/1,2,10;
 10/6=1,13=1/2;
 6/7=2,8=2,9=2,10=2,28=1/1;
 7/10=1,18=20,25=1/1,2,3,16;
 1/10=4,18=20,19=15,26=3/3(2);
 2/9=110/2;
 99//99;
 2/9=110/2;
 3/5=4,6=6,7=212,11=2,25=1,30=1,71=1,74=-58/1,2,3;
 4/5=5,16=3,69=1/1;
 5/5=2,38=5/2;
 7//1,2,3,16;
 1/18=20,19=15,26=3/3(-5);
 2/9=110/2;
 6/7=2,8=2,9=2,10=2,19=2,28=1/1;
 99/9=1/99;
 Leave Link    1 at Thu Mar 14 13:17:13 2024, MaxMem=  1073741824 cpu:               2.6 elap:               0.3
 (Enter /packages/apps/gaussian/g16/g16/l101.exe)
 ---------------------------
 carb4water2 opt freq High 2
 ---------------------------
 Symbolic Z-matrix:
 Charge =  0 Multiplicity = 1
 C                    0     5.83056   2.80067  -0.83673  H 
 C                    0     5.64562   1.31956  -1.14362  H 
 H                    0     6.45982   3.28066  -1.58612  H 
 H                    0     4.87275   3.32162  -0.81743  H 
 H                    0     6.30399   2.94123   0.13706  H 
 C                    0     4.79993   0.57645  -0.09915  H 
 H                    0     5.18032   1.20221  -2.12637  H 
 H                    0     6.62245   0.83348  -1.20715  H 
 C                    0     4.79846  -0.93385  -0.39184  H 
 H                    0     5.28312   0.71522   0.87365  H 
 H                    0     4.45413  -1.10682  -1.41507  H 
 H                    0     5.83967  -1.26527  -0.37013  H 
 C                    0     3.99081  -1.81369   0.58214  H 
 C                    0     4.5605   -3.24289   0.60635  H 
 H                    0     4.11288  -1.39857   1.5879   H 
 H                    0     4.50147  -3.66744  -0.4002   H 
 H                    0     5.62373  -3.18185   0.85034  H 
 C                    0     3.86539  -4.16786   1.59787  H 
 H                    0     4.34142  -5.14821   1.61623  H 
 H                    0     3.90652  -3.75679   2.60851  H 
 H                    0     2.81488  -4.30762   1.34209  H 
 C                    0     2.50321  -1.83343   0.28108  H 
 C                    0     1.5707   -1.43496   1.23083  H 
 C                    0     2.03093  -2.25091  -0.96176  H 
 C                    0     0.21314  -1.43067   0.94842  H 
 H                    0     1.91209  -1.08752   2.19723  H 
 C                    0     0.67812  -2.23994  -1.25167  H 
 H                    0     2.7303   -2.55913  -1.72904  H 
 C                    0    -0.25314  -1.84023  -0.29632  H 
 H                    0    -0.49553  -1.07759   1.68781  H 
 H                    0     0.34409  -2.51706  -2.24383  H 
 C                    0     3.40585   1.15359   0.01137  H 
 C                    0     2.97472   1.75442   1.18629  H 
 C                    0     2.49838   1.03913  -1.03982  H 
 C                    0     1.66363   2.18833   1.32503  H 
 H                    0     3.66138   1.85286   2.01814  H 
 C                    0     1.1848    1.44395  -0.90056  H 
 H                    0     2.80327   0.56161  -1.96213  H 
 C                    0     0.75023   2.0253    0.29091  H 
 H                    0     1.33553   2.61242   2.26641  H 
 H                    0     0.47089   1.25951  -1.6948   H 
 C                    0    -0.6986    2.34486   0.50368  H 
 H                    0    -1.35407   1.60905   0.04664  H 
 H                    0    -0.94398   2.35492   1.56251  H 
 C                    0    -1.72142  -1.77321  -0.59517  H 
 H                    0    -2.19419  -1.05337   0.07207  H 
 H                    0    -1.90985  -1.46459  -1.62122  H 
 C                    0    -2.64407   3.77213   0.15687  H 
 H                    0    -2.97746   4.73925  -0.21419  H 
 H                    0    -3.09978   2.94903  -0.39821  H 
 H                    0    -2.86822   3.66284   1.21524  H 
 C                    0    -0.83706   3.85983  -1.46501  H 
 H                    0     0.2415    3.89053  -1.5886   H 
 H                    0    -1.24904   3.01429  -2.0145   H 
 H                    0    -1.27758   4.79345  -1.80702  H 
 C                    0    -0.51561   4.78324   0.76316  H 
 H                    0    -0.79999   4.66614   1.80587  H 
 H                    0     0.56349   4.70988   0.65656  H 
 H                    0    -0.8641    5.74202   0.38651  H 
 C                    0    -3.92476  -2.81136  -0.6765   H 
 H                    0    -4.46706  -3.74876  -0.57135  H 
 H                    0    -4.29518  -2.06314   0.02577  H 
 H                    0    -4.02168  -2.40802  -1.68322  H 
 C                    0    -1.99229  -4.11072  -1.35517  H 
 H                    0    -2.09906  -3.72775  -2.36705  H 
 H                    0    -0.95066  -4.33507  -1.14576  H 
 H                    0    -2.59537  -5.00716  -1.23443  H 
 C                    0    -2.33241  -3.58026   0.994    H 
 H                    0    -1.28121  -3.76734   1.19444  H 
 H                    0    -2.74078  -2.83357   1.68067  H 
 H                    0    -2.89724  -4.5063    1.07896  H 
 N                    0    -1.15702   3.69932  -0.02042  H 
 N                    0    -2.47707  -3.08228  -0.40351  H 
 C                    0    -3.93121   0.46649   0.23708  H 
 O                    0    -3.65157   1.00114  -0.92119  H 
 O                    0    -5.00684  -0.13212   0.44137  H 
 O                    0    -2.99494   0.53097   1.1531   H 
 O                    0    -3.74763  -1.40878   2.81245  L    H        70    0.        0.        0.        0. 
 H                    0    -4.66479  -1.38562   2.52711  L 
 H                    0    -3.3987   -0.64926   2.2811   L    H        77    0.        0.        0.        0. 
 O                    0    -2.64309   2.36611   3.02267  L 
 H                    0    -2.86993   1.66393   2.36039  L    H        77    0.        0.        0.        0. 
 H                    0    -3.07737   2.09547   3.83005  L 
 O                    0    -1.5959    0.90053  -2.54747  L    H        54    0.        0.        0.        0. 
 H                    0    -2.09992   0.56235  -3.29164  L 
 H                    0    -2.28984   0.94354  -1.83733  L    H        75    0.        0.        0.        0. 
 O                    0    -4.18654  -0.53921  -2.99865  L 
 H                    0    -5.07632  -0.44613  -3.33509  L 
 H                    0    -4.15674   0.0402   -2.18853  L    H        75    0.        0.        0.        0. 
 
 Warning:  atom H80 in layer R is uses the same element as its link atom.
 Warning:  atom H82 in layer R is uses the same element as its link atom.
 Warning:  atom H86 in layer R is uses the same element as its link atom.
 Warning:  atom H89 in layer R is uses the same element as its link atom.
 Add virtual bond connecting atoms H86        and O75        Dist= 3.10D+00.
 Add virtual bond connecting atoms H82        and O77        Dist= 3.14D+00.
 Add virtual bond connecting atoms H89        and O75        Dist= 3.15D+00.
 Add virtual bond connecting atoms H80        and O77        Dist= 3.18D+00.
 Add virtual bond connecting atoms O75        and H50        Dist= 3.95D+00.
 Add virtual bond connecting atoms O76        and H62        Dist= 3.97D+00.
 Add virtual bond connecting atoms O77        and H46        Dist= 3.93D+00.
 Add virtual bond connecting atoms O78        and H70        Dist= 3.93D+00.
 Add virtual bond connecting atoms O81        and H51        Dist= 4.23D+00.
 ITRead=  0  0  0  0  0  0  0  0  0  0  0  0  0  0  0  0  0  0  0  0
 ITRead=  0  0  0  0  0  0  0  0  0  0  0  0  0  0  0  0  0  0  0  0
 ITRead=  0  0  0  0  0  0  0  0  0  0  0  0  0  0  0  0  0  0  0  0
 ITRead=  0  0  0  0  0  0  0  0  0  0  0  0  0  0  0  0  0  0  0  0
 ITRead=  0  0  0  0  0  0  0  0  0
 MicOpt= -1 -1 -1 -1 -1 -1 -1 -1 -1 -1 -1 -1 -1 -1 -1 -1 -1 -1 -1 -1
 MicOpt= -1 -1 -1 -1 -1 -1 -1 -1 -1 -1 -1 -1 -1 -1 -1 -1 -1 -1 -1 -1
 MicOpt= -1 -1 -1 -1 -1 -1 -1 -1 -1 -1 -1 -1 -1 -1 -1 -1 -1 -1 -1 -1
 MicOpt= -1 -1 -1 -1 -1 -1 -1 -1 -1 -1 -1 -1 -1 -1 -1 -1 -1 -1 -1 -1
 MicOpt= -1 -1 -1 -1 -1 -1 -1 -1 -1
 NAtoms=     89 NQM=       89 NQMF=       0 NMMI=      0 NMMIF=      0
                NMic=       0 NMicF=      0.
                    Isotopes and Nuclear Properties:
 (Nuclear quadrupole moments (NQMom) in fm**2, nuclear magnetic moments (NMagM)
  in nuclear magnetons)

  Atom         1           2           3           4           5           6           7           8           9          10
 IAtWgt=          12          12           1           1           1          12           1           1          12           1
 AtmWgt=  12.0000000  12.0000000   1.0078250   1.0078250   1.0078250  12.0000000   1.0078250   1.0078250  12.0000000   1.0078250
 NucSpn=           0           0           1           1           1           0           1           1           0           1
 AtZEff=  -0.0000000  -0.0000000  -0.0000000  -0.0000000  -0.0000000  -0.0000000  -0.0000000  -0.0000000  -0.0000000  -0.0000000
 NQMom=    0.0000000   0.0000000   0.0000000   0.0000000   0.0000000   0.0000000   0.0000000   0.0000000   0.0000000   0.0000000
 NMagM=    0.0000000   0.0000000   2.7928460   2.7928460   2.7928460   0.0000000   2.7928460   2.7928460   0.0000000   2.7928460
 AtZNuc=   6.0000000   6.0000000   1.0000000   1.0000000   1.0000000   6.0000000   1.0000000   1.0000000   6.0000000   1.0000000

  Atom        11          12          13          14          15          16          17          18          19          20
 IAtWgt=           1           1          12          12           1           1           1          12           1           1
 AtmWgt=   1.0078250   1.0078250  12.0000000  12.0000000   1.0078250   1.0078250   1.0078250  12.0000000   1.0078250   1.0078250
 NucSpn=           1           1           0           0           1           1           1           0           1           1
 AtZEff=  -0.0000000  -0.0000000  -0.0000000  -0.0000000  -0.0000000  -0.0000000  -0.0000000  -0.0000000  -0.0000000  -0.0000000
 NQMom=    0.0000000   0.0000000   0.0000000   0.0000000   0.0000000   0.0000000   0.0000000   0.0000000   0.0000000   0.0000000
 NMagM=    2.7928460   2.7928460   0.0000000   0.0000000   2.7928460   2.7928460   2.7928460   0.0000000   2.7928460   2.7928460
 AtZNuc=   1.0000000   1.0000000   6.0000000   6.0000000   1.0000000   1.0000000   1.0000000   6.0000000   1.0000000   1.0000000

  Atom        21          22          23          24          25          26          27          28          29          30
 IAtWgt=           1          12          12          12          12           1          12           1          12           1
 AtmWgt=   1.0078250  12.0000000  12.0000000  12.0000000  12.0000000   1.0078250  12.0000000   1.0078250  12.0000000   1.0078250
 NucSpn=           1           0           0           0           0           1           0           1           0           1
 AtZEff=  -0.0000000  -0.0000000  -0.0000000  -0.0000000  -0.0000000  -0.0000000  -0.0000000  -0.0000000  -0.0000000  -0.0000000
 NQMom=    0.0000000   0.0000000   0.0000000   0.0000000   0.0000000   0.0000000   0.0000000   0.0000000   0.0000000   0.0000000
 NMagM=    2.7928460   0.0000000   0.0000000   0.0000000   0.0000000   2.7928460   0.0000000   2.7928460   0.0000000   2.7928460
 AtZNuc=   1.0000000   6.0000000   6.0000000   6.0000000   6.0000000   1.0000000   6.0000000   1.0000000   6.0000000   1.0000000

  Atom        31          32          33          34          35          36          37          38          39          40
 IAtWgt=           1          12          12          12          12           1          12           1          12           1
 AtmWgt=   1.0078250  12.0000000  12.0000000  12.0000000  12.0000000   1.0078250  12.0000000   1.0078250  12.0000000   1.0078250
 NucSpn=           1           0           0           0           0           1           0           1           0           1
 AtZEff=  -0.0000000  -0.0000000  -0.0000000  -0.0000000  -0.0000000  -0.0000000  -0.0000000  -0.0000000  -0.0000000  -0.0000000
 NQMom=    0.0000000   0.0000000   0.0000000   0.0000000   0.0000000   0.0000000   0.0000000   0.0000000   0.0000000   0.0000000
 NMagM=    2.7928460   0.0000000   0.0000000   0.0000000   0.0000000   2.7928460   0.0000000   2.7928460   0.0000000   2.7928460
 AtZNuc=   1.0000000   6.0000000   6.0000000   6.0000000   6.0000000   1.0000000   6.0000000   1.0000000   6.0000000   1.0000000

  Atom        41          42          43          44          45          46          47          48          49          50
 IAtWgt=           1          12           1           1          12           1           1          12           1           1
 AtmWgt=   1.0078250  12.0000000   1.0078250   1.0078250  12.0000000   1.0078250   1.0078250  12.0000000   1.0078250   1.0078250
 NucSpn=           1           0           1           1           0           1           1           0           1           1
 AtZEff=  -0.0000000  -0.0000000  -0.0000000  -0.0000000  -0.0000000  -0.0000000  -0.0000000  -0.0000000  -0.0000000  -0.0000000
 NQMom=    0.0000000   0.0000000   0.0000000   0.0000000   0.0000000   0.0000000   0.0000000   0.0000000   0.0000000   0.0000000
 NMagM=    2.7928460   0.0000000   2.7928460   2.7928460   0.0000000   2.7928460   2.7928460   0.0000000   2.7928460   2.7928460
 AtZNuc=   1.0000000   6.0000000   1.0000000   1.0000000   6.0000000   1.0000000   1.0000000   6.0000000   1.0000000   1.0000000

  Atom        51          52          53          54          55          56          57          58          59          60
 IAtWgt=           1          12           1           1           1          12           1           1           1          12
 AtmWgt=   1.0078250  12.0000000   1.0078250   1.0078250   1.0078250  12.0000000   1.0078250   1.0078250   1.0078250  12.0000000
 NucSpn=           1           0           1           1           1           0           1           1           1           0
 AtZEff=  -0.0000000  -0.0000000  -0.0000000  -0.0000000  -0.0000000  -0.0000000  -0.0000000  -0.0000000  -0.0000000  -0.0000000
 NQMom=    0.0000000   0.0000000   0.0000000   0.0000000   0.0000000   0.0000000   0.0000000   0.0000000   0.0000000   0.0000000
 NMagM=    2.7928460   0.0000000   2.7928460   2.7928460   2.7928460   0.0000000   2.7928460   2.7928460   2.7928460   0.0000000
 AtZNuc=   1.0000000   6.0000000   1.0000000   1.0000000   1.0000000   6.0000000   1.0000000   1.0000000   1.0000000   6.0000000

  Atom        61          62          63          64          65          66          67          68          69          70
 IAtWgt=           1           1           1          12           1           1           1          12           1           1
 AtmWgt=   1.0078250   1.0078250   1.0078250  12.0000000   1.0078250   1.0078250   1.0078250  12.0000000   1.0078250   1.0078250
 NucSpn=           1           1           1           0           1           1           1           0           1           1
 AtZEff=  -0.0000000  -0.0000000  -0.0000000  -0.0000000  -0.0000000  -0.0000000  -0.0000000  -0.0000000  -0.0000000  -0.0000000
 NQMom=    0.0000000   0.0000000   0.0000000   0.0000000   0.0000000   0.0000000   0.0000000   0.0000000   0.0000000   0.0000000
 NMagM=    2.7928460   2.7928460   2.7928460   0.0000000   2.7928460   2.7928460   2.7928460   0.0000000   2.7928460   2.7928460
 AtZNuc=   1.0000000   1.0000000   1.0000000   6.0000000   1.0000000   1.0000000   1.0000000   6.0000000   1.0000000   1.0000000

  Atom        71          72          73          74          75          76          77          78          79          80
 IAtWgt=           1          14          14          12          16          16          16          16           1           1
 AtmWgt=   1.0078250  14.0030740  14.0030740  12.0000000  15.9949146  15.9949146  15.9949146  15.9949146   1.0078250   1.0078250
 NucSpn=           1           2           2           0           0           0           0           0           1           1
 AtZEff=  -0.0000000  -0.0000000  -0.0000000  -0.0000000  -0.0000000  -0.0000000  -0.0000000  -0.0000000  -0.0000000  -0.0000000
 NQMom=    0.0000000   2.0440000   2.0440000   0.0000000   0.0000000   0.0000000   0.0000000   0.0000000   0.0000000   0.0000000
 NMagM=    2.7928460   0.4037610   0.4037610   0.0000000   0.0000000   0.0000000   0.0000000   0.0000000   2.7928460   2.7928460
 AtZNuc=   1.0000000   7.0000000   7.0000000   6.0000000   8.0000000   8.0000000   8.0000000   8.0000000   1.0000000   1.0000000

  Atom        81          82          83          84          85          86          87          88          89
 IAtWgt=          16           1           1          16           1           1          16           1           1
 AtmWgt=  15.9949146   1.0078250   1.0078250  15.9949146   1.0078250   1.0078250  15.9949146   1.0078250   1.0078250
 NucSpn=           0           1           1           0           1           1           0           1           1
 AtZEff=  -0.0000000  -0.0000000  -0.0000000  -0.0000000  -0.0000000  -0.0000000  -0.0000000  -0.0000000  -0.0000000
 NQMom=    0.0000000   0.0000000   0.0000000   0.0000000   0.0000000   0.0000000   0.0000000   0.0000000   0.0000000
 NMagM=    0.0000000   2.7928460   2.7928460   0.0000000   2.7928460   2.7928460   0.0000000   2.7928460   2.7928460
 AtZNuc=   8.0000000   1.0000000   1.0000000   8.0000000   1.0000000   1.0000000   8.0000000   1.0000000   1.0000000
 Leave Link  101 at Thu Mar 14 13:17:14 2024, MaxMem=  1073741824 cpu:               3.2 elap:               0.5
 (Enter /packages/apps/gaussian/g16/g16/l103.exe)

 GradGradGradGradGradGradGradGradGradGradGradGradGradGradGradGradGradGrad
 Berny optimization.
 Initialization pass.
                           ----------------------------
                           !    Initial Parameters    !
                           ! (Angstroms and Degrees)  !
 --------------------------                            --------------------------
 ! Name  Definition              Value          Derivative Info.                !
 --------------------------------------------------------------------------------
 ! R1    R(1,2)                  1.5238         calculate D2E/DX2 analytically  !
 ! R2    R(1,3)                  1.0899         calculate D2E/DX2 analytically  !
 ! R3    R(1,4)                  1.0905         calculate D2E/DX2 analytically  !
 ! R4    R(1,5)                  1.0919         calculate D2E/DX2 analytically  !
 ! R5    R(2,6)                  1.5357         calculate D2E/DX2 analytically  !
 ! R6    R(2,7)                  1.0936         calculate D2E/DX2 analytically  !
 ! R7    R(2,8)                  1.0929         calculate D2E/DX2 analytically  !
 ! R8    R(6,9)                  1.5384         calculate D2E/DX2 analytically  !
 ! R9    R(6,10)                 1.095          calculate D2E/DX2 analytically  !
 ! R10   R(6,32)                 1.5129         calculate D2E/DX2 analytically  !
 ! R11   R(9,11)                 1.0934         calculate D2E/DX2 analytically  !
 ! R12   R(9,12)                 1.0929         calculate D2E/DX2 analytically  !
 ! R13   R(9,13)                 1.5411         calculate D2E/DX2 analytically  !
 ! R14   R(13,14)                1.5387         calculate D2E/DX2 analytically  !
 ! R15   R(13,15)                1.0949         calculate D2E/DX2 analytically  !
 ! R16   R(13,22)                1.5179         calculate D2E/DX2 analytically  !
 ! R17   R(14,16)                1.094          calculate D2E/DX2 analytically  !
 ! R18   R(14,17)                1.0926         calculate D2E/DX2 analytically  !
 ! R19   R(14,18)                1.5238         calculate D2E/DX2 analytically  !
 ! R20   R(18,19)                1.09           calculate D2E/DX2 analytically  !
 ! R21   R(18,20)                1.0918         calculate D2E/DX2 analytically  !
 ! R22   R(18,21)                1.0902         calculate D2E/DX2 analytically  !
 ! R23   R(22,23)                1.3894         calculate D2E/DX2 analytically  !
 ! R24   R(22,24)                1.3936         calculate D2E/DX2 analytically  !
 ! R25   R(23,25)                1.3866         calculate D2E/DX2 analytically  !
 ! R26   R(23,26)                1.0822         calculate D2E/DX2 analytically  !
 ! R27   R(24,27)                1.3836         calculate D2E/DX2 analytically  !
 ! R28   R(24,28)                1.083          calculate D2E/DX2 analytically  !
 ! R29   R(25,29)                1.3909         calculate D2E/DX2 analytically  !
 ! R30   R(25,30)                1.0833         calculate D2E/DX2 analytically  !
 ! R31   R(27,29)                1.3927         calculate D2E/DX2 analytically  !
 ! R32   R(27,31)                1.0829         calculate D2E/DX2 analytically  !
 ! R33   R(29,45)                1.4999         calculate D2E/DX2 analytically  !
 ! R34   R(32,33)                1.3883         calculate D2E/DX2 analytically  !
 ! R35   R(32,34)                1.3934         calculate D2E/DX2 analytically  !
 ! R36   R(33,35)                1.388          calculate D2E/DX2 analytically  !
 ! R37   R(33,36)                1.0831         calculate D2E/DX2 analytically  !
 ! R38   R(34,37)                1.3816         calculate D2E/DX2 analytically  !
 ! R39   R(34,38)                1.0824         calculate D2E/DX2 analytically  !
 ! R40   R(35,39)                1.3893         calculate D2E/DX2 analytically  !
 ! R41   R(35,40)                1.0834         calculate D2E/DX2 analytically  !
 ! R42   R(37,39)                1.3951         calculate D2E/DX2 analytically  !
 ! R43   R(37,41)                1.0837         calculate D2E/DX2 analytically  !
 ! R44   R(39,42)                1.4988         calculate D2E/DX2 analytically  !
 ! R45   R(42,43)                1.0863         calculate D2E/DX2 analytically  !
 ! R46   R(42,44)                1.0869         calculate D2E/DX2 analytically  !
 ! R47   R(42,72)                1.523          calculate D2E/DX2 analytically  !
 ! R48   R(45,46)                1.0894         calculate D2E/DX2 analytically  !
 ! R49   R(45,47)                1.0879         calculate D2E/DX2 analytically  !
 ! R50   R(45,73)                1.5236         calculate D2E/DX2 analytically  !
 ! R51   R(46,77)                2.0784         calculate D2E/DX2 analytically  !
 ! R52   R(48,49)                1.0882         calculate D2E/DX2 analytically  !
 ! R53   R(48,50)                1.0924         calculate D2E/DX2 analytically  !
 ! R54   R(48,51)                1.0874         calculate D2E/DX2 analytically  !
 ! R55   R(48,72)                1.4993         calculate D2E/DX2 analytically  !
 ! R56   R(50,75)                2.091          calculate D2E/DX2 analytically  !
 ! R57   R(51,81)                2.2358         calculate D2E/DX2 analytically  !
 ! R58   R(52,53)                1.0861         calculate D2E/DX2 analytically  !
 ! R59   R(52,54)                1.0893         calculate D2E/DX2 analytically  !
 ! R60   R(52,55)                1.0875         calculate D2E/DX2 analytically  !
 ! R61   R(52,72)                1.4883         calculate D2E/DX2 analytically  !
 ! R62   R(56,57)                1.0871         calculate D2E/DX2 analytically  !
 ! R63   R(56,58)                1.0868         calculate D2E/DX2 analytically  !
 ! R64   R(56,59)                1.0875         calculate D2E/DX2 analytically  !
 ! R65   R(56,72)                1.4833         calculate D2E/DX2 analytically  !
 ! R66   R(60,61)                1.0881         calculate D2E/DX2 analytically  !
 ! R67   R(60,62)                1.091          calculate D2E/DX2 analytically  !
 ! R68   R(60,63)                1.0888         calculate D2E/DX2 analytically  !
 ! R69   R(60,73)                1.4979         calculate D2E/DX2 analytically  !
 ! R70   R(62,76)                2.0995         calculate D2E/DX2 analytically  !
 ! R71   R(64,65)                1.0872         calculate D2E/DX2 analytically  !
 ! R72   R(64,66)                1.0859         calculate D2E/DX2 analytically  !
 ! R73   R(64,67)                1.0871         calculate D2E/DX2 analytically  !
 ! R74   R(64,73)                1.4827         calculate D2E/DX2 analytically  !
 ! R75   R(68,69)                1.0864         calculate D2E/DX2 analytically  !
 ! R76   R(68,70)                1.0935         calculate D2E/DX2 analytically  !
 ! R77   R(68,71)                1.088          calculate D2E/DX2 analytically  !
 ! R78   R(68,73)                1.4906         calculate D2E/DX2 analytically  !
 ! R79   R(70,78)                2.0796         calculate D2E/DX2 analytically  !
 ! R80   R(74,75)                1.306          calculate D2E/DX2 analytically  !
 ! R81   R(74,76)                1.2478         calculate D2E/DX2 analytically  !
 ! R82   R(74,77)                1.3114         calculate D2E/DX2 analytically  !
 ! R83   R(75,86)                1.6422         calculate D2E/DX2 analytically  !
 ! R84   R(75,89)                1.6688         calculate D2E/DX2 analytically  !
 ! R85   R(77,80)                1.6818         calculate D2E/DX2 analytically  !
 ! R86   R(77,82)                1.6604         calculate D2E/DX2 analytically  !
 ! R87   R(78,79)                0.9608         calculate D2E/DX2 analytically  !
 ! R88   R(78,80)                0.9904         calculate D2E/DX2 analytically  !
 ! R89   R(81,82)                0.9915         calculate D2E/DX2 analytically  !
 ! R90   R(81,83)                0.9559         calculate D2E/DX2 analytically  !
 ! R91   R(84,85)                0.9603         calculate D2E/DX2 analytically  !
 ! R92   R(84,86)                0.9938         calculate D2E/DX2 analytically  !
 ! R93   R(87,88)                0.9558         calculate D2E/DX2 analytically  !
 ! R94   R(87,89)                0.9964         calculate D2E/DX2 analytically  !
 ! A1    A(2,1,3)              111.0777         calculate D2E/DX2 analytically  !
 ! A2    A(2,1,4)              111.18           calculate D2E/DX2 analytically  !
 ! A3    A(2,1,5)              110.9385         calculate D2E/DX2 analytically  !
 ! A4    A(3,1,4)              107.9916         calculate D2E/DX2 analytically  !
 ! A5    A(3,1,5)              107.8293         calculate D2E/DX2 analytically  !
 ! A6    A(4,1,5)              107.6718         calculate D2E/DX2 analytically  !
 ! A7    A(1,2,6)              113.5898         calculate D2E/DX2 analytically  !
 ! A8    A(1,2,7)              109.6884         calculate D2E/DX2 analytically  !
 ! A9    A(1,2,8)              109.6042         calculate D2E/DX2 analytically  !
 ! A10   A(6,2,7)              108.9622         calculate D2E/DX2 analytically  !
 ! A11   A(6,2,8)              108.4518         calculate D2E/DX2 analytically  !
 ! A12   A(7,2,8)              106.2783         calculate D2E/DX2 analytically  !
 ! A13   A(2,6,9)              110.2538         calculate D2E/DX2 analytically  !
 ! A14   A(2,6,10)             107.4512         calculate D2E/DX2 analytically  !
 ! A15   A(2,6,32)             111.872          calculate D2E/DX2 analytically  !
 ! A16   A(9,6,10)             107.0892         calculate D2E/DX2 analytically  !
 ! A17   A(9,6,32)             112.8018         calculate D2E/DX2 analytically  !
 ! A18   A(10,6,32)            107.0601         calculate D2E/DX2 analytically  !
 ! A19   A(6,9,11)             109.4909         calculate D2E/DX2 analytically  !
 ! A20   A(6,9,12)             107.0392         calculate D2E/DX2 analytically  !
 ! A21   A(6,9,13)             116.1506         calculate D2E/DX2 analytically  !
 ! A22   A(11,9,12)            105.7033         calculate D2E/DX2 analytically  !
 ! A23   A(11,9,13)            109.6386         calculate D2E/DX2 analytically  !
 ! A24   A(12,9,13)            108.2762         calculate D2E/DX2 analytically  !
 ! A25   A(9,13,14)            110.2538         calculate D2E/DX2 analytically  !
 ! A26   A(9,13,15)            107.7982         calculate D2E/DX2 analytically  !
 ! A27   A(9,13,22)            113.3086         calculate D2E/DX2 analytically  !
 ! A28   A(14,13,15)           107.2431         calculate D2E/DX2 analytically  !
 ! A29   A(14,13,22)           110.7245         calculate D2E/DX2 analytically  !
 ! A30   A(15,13,22)           107.2414         calculate D2E/DX2 analytically  !
 ! A31   A(13,14,16)           109.0261         calculate D2E/DX2 analytically  !
 ! A32   A(13,14,17)           108.1741         calculate D2E/DX2 analytically  !
 ! A33   A(13,14,18)           113.9012         calculate D2E/DX2 analytically  !
 ! A34   A(16,14,17)           106.2392         calculate D2E/DX2 analytically  !
 ! A35   A(16,14,18)           109.7853         calculate D2E/DX2 analytically  !
 ! A36   A(17,14,18)           109.4221         calculate D2E/DX2 analytically  !
 ! A37   A(14,18,19)           110.9598         calculate D2E/DX2 analytically  !
 ! A38   A(14,18,20)           110.8913         calculate D2E/DX2 analytically  !
 ! A39   A(14,18,21)           111.3903         calculate D2E/DX2 analytically  !
 ! A40   A(19,18,20)           107.854          calculate D2E/DX2 analytically  !
 ! A41   A(19,18,21)           108.0281         calculate D2E/DX2 analytically  !
 ! A42   A(20,18,21)           107.5625         calculate D2E/DX2 analytically  !
 ! A43   A(13,22,23)           121.2291         calculate D2E/DX2 analytically  !
 ! A44   A(13,22,24)           120.8593         calculate D2E/DX2 analytically  !
 ! A45   A(23,22,24)           117.9115         calculate D2E/DX2 analytically  !
 ! A46   A(22,23,25)           121.2495         calculate D2E/DX2 analytically  !
 ! A47   A(22,23,26)           119.3914         calculate D2E/DX2 analytically  !
 ! A48   A(25,23,26)           119.3221         calculate D2E/DX2 analytically  !
 ! A49   A(22,24,27)           121.0557         calculate D2E/DX2 analytically  !
 ! A50   A(22,24,28)           119.8857         calculate D2E/DX2 analytically  !
 ! A51   A(27,24,28)           119.0274         calculate D2E/DX2 analytically  !
 ! A52   A(23,25,29)           120.635          calculate D2E/DX2 analytically  !
 ! A53   A(23,25,30)           120.1624         calculate D2E/DX2 analytically  !
 ! A54   A(29,25,30)           119.1754         calculate D2E/DX2 analytically  !
 ! A55   A(24,27,29)           120.8192         calculate D2E/DX2 analytically  !
 ! A56   A(24,27,31)           119.442          calculate D2E/DX2 analytically  !
 ! A57   A(29,27,31)           119.7123         calculate D2E/DX2 analytically  !
 ! A58   A(25,29,27)           118.3094         calculate D2E/DX2 analytically  !
 ! A59   A(25,29,45)           119.5602         calculate D2E/DX2 analytically  !
 ! A60   A(27,29,45)           122.0535         calculate D2E/DX2 analytically  !
 ! A61   A(6,32,33)            120.8701         calculate D2E/DX2 analytically  !
 ! A62   A(6,32,34)            120.9091         calculate D2E/DX2 analytically  !
 ! A63   A(33,32,34)           118.1487         calculate D2E/DX2 analytically  !
 ! A64   A(32,33,35)           120.8798         calculate D2E/DX2 analytically  !
 ! A65   A(32,33,36)           119.5004         calculate D2E/DX2 analytically  !
 ! A66   A(35,33,36)           119.582          calculate D2E/DX2 analytically  !
 ! A67   A(32,34,37)           121.2715         calculate D2E/DX2 analytically  !
 ! A68   A(32,34,38)           119.7097         calculate D2E/DX2 analytically  !
 ! A69   A(37,34,38)           118.8788         calculate D2E/DX2 analytically  !
 ! A70   A(33,35,39)           120.6589         calculate D2E/DX2 analytically  !
 ! A71   A(33,35,40)           119.6897         calculate D2E/DX2 analytically  !
 ! A72   A(39,35,40)           119.5777         calculate D2E/DX2 analytically  !
 ! A73   A(34,37,39)           120.2871         calculate D2E/DX2 analytically  !
 ! A74   A(34,37,41)           120.1715         calculate D2E/DX2 analytically  !
 ! A75   A(39,37,41)           119.4457         calculate D2E/DX2 analytically  !
 ! A76   A(35,39,37)           118.6711         calculate D2E/DX2 analytically  !
 ! A77   A(35,39,42)           120.319          calculate D2E/DX2 analytically  !
 ! A78   A(37,39,42)           120.742          calculate D2E/DX2 analytically  !
 ! A79   A(39,42,43)           112.2802         calculate D2E/DX2 analytically  !
 ! A80   A(39,42,44)           111.007          calculate D2E/DX2 analytically  !
 ! A81   A(39,42,72)           115.5774         calculate D2E/DX2 analytically  !
 ! A82   A(43,42,44)           106.255          calculate D2E/DX2 analytically  !
 ! A83   A(43,42,72)           106.0225         calculate D2E/DX2 analytically  !
 ! A84   A(44,42,72)           105.0139         calculate D2E/DX2 analytically  !
 ! A85   A(29,45,46)           109.4084         calculate D2E/DX2 analytically  !
 ! A86   A(29,45,47)           111.7255         calculate D2E/DX2 analytically  !
 ! A87   A(29,45,73)           114.9639         calculate D2E/DX2 analytically  !
 ! A88   A(46,45,47)           108.3633         calculate D2E/DX2 analytically  !
 ! A89   A(46,45,73)           105.9877         calculate D2E/DX2 analytically  !
 ! A90   A(47,45,73)           106.0498         calculate D2E/DX2 analytically  !
 ! A91   A(49,48,50)           111.6287         calculate D2E/DX2 analytically  !
 ! A92   A(49,48,51)           110.9816         calculate D2E/DX2 analytically  !
 ! A93   A(49,48,72)           107.8606         calculate D2E/DX2 analytically  !
 ! A94   A(50,48,51)           109.4424         calculate D2E/DX2 analytically  !
 ! A95   A(50,48,72)           108.486          calculate D2E/DX2 analytically  !
 ! A96   A(51,48,72)           108.3407         calculate D2E/DX2 analytically  !
 ! A97   A(48,50,75)           159.9028         calculate D2E/DX2 analytically  !
 ! A98   A(48,51,81)           145.5254         calculate D2E/DX2 analytically  !
 ! A99   A(53,52,54)           109.8843         calculate D2E/DX2 analytically  !
 ! A100  A(53,52,55)           110.0126         calculate D2E/DX2 analytically  !
 ! A101  A(53,52,72)           109.0875         calculate D2E/DX2 analytically  !
 ! A102  A(54,52,55)           110.7646         calculate D2E/DX2 analytically  !
 ! A103  A(54,52,72)           108.9421         calculate D2E/DX2 analytically  !
 ! A104  A(55,52,72)           108.1052         calculate D2E/DX2 analytically  !
 ! A105  A(57,56,58)           110.2755         calculate D2E/DX2 analytically  !
 ! A106  A(57,56,59)           110.0818         calculate D2E/DX2 analytically  !
 ! A107  A(57,56,72)           108.3518         calculate D2E/DX2 analytically  !
 ! A108  A(58,56,59)           110.1036         calculate D2E/DX2 analytically  !
 ! A109  A(58,56,72)           109.159          calculate D2E/DX2 analytically  !
 ! A110  A(59,56,72)           108.8277         calculate D2E/DX2 analytically  !
 ! A111  A(61,60,62)           111.0652         calculate D2E/DX2 analytically  !
 ! A112  A(61,60,63)           111.3536         calculate D2E/DX2 analytically  !
 ! A113  A(61,60,73)           107.9552         calculate D2E/DX2 analytically  !
 ! A114  A(62,60,63)           108.1125         calculate D2E/DX2 analytically  !
 ! A115  A(62,60,73)           109.5648         calculate D2E/DX2 analytically  !
 ! A116  A(63,60,73)           108.756          calculate D2E/DX2 analytically  !
 ! A117  A(60,62,76)           150.8435         calculate D2E/DX2 analytically  !
 ! A118  A(65,64,66)           110.2721         calculate D2E/DX2 analytically  !
 ! A119  A(65,64,67)           109.8376         calculate D2E/DX2 analytically  !
 ! A120  A(65,64,73)           108.7198         calculate D2E/DX2 analytically  !
 ! A121  A(66,64,67)           109.8973         calculate D2E/DX2 analytically  !
 ! A122  A(66,64,73)           109.461          calculate D2E/DX2 analytically  !
 ! A123  A(67,64,73)           108.6199         calculate D2E/DX2 analytically  !
 ! A124  A(69,68,70)           111.2891         calculate D2E/DX2 analytically  !
 ! A125  A(69,68,71)           109.9596         calculate D2E/DX2 analytically  !
 ! A126  A(69,68,73)           108.9305         calculate D2E/DX2 analytically  !
 ! A127  A(70,68,71)           109.7709         calculate D2E/DX2 analytically  !
 ! A128  A(70,68,73)           108.9264         calculate D2E/DX2 analytically  !
 ! A129  A(71,68,73)           107.8886         calculate D2E/DX2 analytically  !
 ! A130  A(42,72,48)           107.5198         calculate D2E/DX2 analytically  !
 ! A131  A(42,72,52)           111.4223         calculate D2E/DX2 analytically  !
 ! A132  A(42,72,56)           109.7511         calculate D2E/DX2 analytically  !
 ! A133  A(48,72,52)           108.8297         calculate D2E/DX2 analytically  !
 ! A134  A(48,72,56)           109.324          calculate D2E/DX2 analytically  !
 ! A135  A(52,72,56)           109.9366         calculate D2E/DX2 analytically  !
 ! A136  A(45,73,60)           107.5182         calculate D2E/DX2 analytically  !
 ! A137  A(45,73,64)           110.6743         calculate D2E/DX2 analytically  !
 ! A138  A(45,73,68)           110.9064         calculate D2E/DX2 analytically  !
 ! A139  A(60,73,64)           108.9339         calculate D2E/DX2 analytically  !
 ! A140  A(60,73,68)           108.9708         calculate D2E/DX2 analytically  !
 ! A141  A(64,73,68)           109.7732         calculate D2E/DX2 analytically  !
 ! A142  A(75,74,76)           121.7465         calculate D2E/DX2 analytically  !
 ! A143  A(75,74,77)           116.5186         calculate D2E/DX2 analytically  !
 ! A144  A(76,74,77)           121.6441         calculate D2E/DX2 analytically  !
 ! A145  A(50,75,74)           102.4769         calculate D2E/DX2 analytically  !
 ! A146  A(50,75,86)            87.3278         calculate D2E/DX2 analytically  !
 ! A147  A(50,75,89)           143.7324         calculate D2E/DX2 analytically  !
 ! A148  A(74,75,86)           131.1433         calculate D2E/DX2 analytically  !
 ! A149  A(74,75,89)           111.9002         calculate D2E/DX2 analytically  !
 ! A150  A(86,75,89)            78.881          calculate D2E/DX2 analytically  !
 ! A151  A(62,76,74)            96.6974         calculate D2E/DX2 analytically  !
 ! A152  A(46,77,74)            82.7776         calculate D2E/DX2 analytically  !
 ! A153  A(46,77,80)            84.6295         calculate D2E/DX2 analytically  !
 ! A154  A(46,77,82)           150.3802         calculate D2E/DX2 analytically  !
 ! A155  A(74,77,80)           105.2239         calculate D2E/DX2 analytically  !
 ! A156  A(74,77,82)           126.5265         calculate D2E/DX2 analytically  !
 ! A157  A(80,77,82)            90.5295         calculate D2E/DX2 analytically  !
 ! A158  A(70,78,79)           108.4849         calculate D2E/DX2 analytically  !
 ! A159  A(70,78,80)            93.6038         calculate D2E/DX2 analytically  !
 ! A160  A(79,78,80)            99.1192         calculate D2E/DX2 analytically  !
 ! A161  A(51,81,82)            81.242          calculate D2E/DX2 analytically  !
 ! A162  A(51,81,83)           143.2504         calculate D2E/DX2 analytically  !
 ! A163  A(82,81,83)           105.0535         calculate D2E/DX2 analytically  !
 ! A164  A(85,84,86)           101.6821         calculate D2E/DX2 analytically  !
 ! A165  A(88,87,89)           104.916          calculate D2E/DX2 analytically  !
 ! A166  A(75,89,87)           164.0158         calculate D2E/DX2 analytically  !
 ! A167  L(45,46,77,1,-1)      174.4141         calculate D2E/DX2 analytically  !
 ! A168  L(68,70,78,1,-1)      183.9655         calculate D2E/DX2 analytically  !
 ! A169  L(77,80,78,13,-1)     184.1253         calculate D2E/DX2 analytically  !
 ! A170  L(77,82,81,51,-1)     176.9204         calculate D2E/DX2 analytically  !
 ! A171  L(75,86,84,20,-1)     189.6775         calculate D2E/DX2 analytically  !
 ! A172  L(45,46,77,1,-2)      173.7455         calculate D2E/DX2 analytically  !
 ! A173  L(68,70,78,1,-2)      173.0436         calculate D2E/DX2 analytically  !
 ! A174  L(77,80,78,13,-2)     190.3936         calculate D2E/DX2 analytically  !
 ! A175  L(77,82,81,51,-2)     189.3578         calculate D2E/DX2 analytically  !
 ! A176  L(75,86,84,20,-2)     173.1732         calculate D2E/DX2 analytically  !
 ! D1    D(3,1,2,6)            178.3186         calculate D2E/DX2 analytically  !
 ! D2    D(3,1,2,7)            -59.4836         calculate D2E/DX2 analytically  !
 ! D3    D(3,1,2,8)             56.842          calculate D2E/DX2 analytically  !
 ! D4    D(4,1,2,6)            -61.3935         calculate D2E/DX2 analytically  !
 ! D5    D(4,1,2,7)             60.8043         calculate D2E/DX2 analytically  !
 ! D6    D(4,1,2,8)            177.1299         calculate D2E/DX2 analytically  !
 ! D7    D(5,1,2,6)             58.3972         calculate D2E/DX2 analytically  !
 ! D8    D(5,1,2,7)           -179.405          calculate D2E/DX2 analytically  !
 ! D9    D(5,1,2,8)            -63.0794         calculate D2E/DX2 analytically  !
 ! D10   D(1,2,6,9)           -173.4192         calculate D2E/DX2 analytically  !
 ! D11   D(1,2,6,10)           -57.0382         calculate D2E/DX2 analytically  !
 ! D12   D(1,2,6,32)            60.1927         calculate D2E/DX2 analytically  !
 ! D13   D(7,2,6,9)             63.9817         calculate D2E/DX2 analytically  !
 ! D14   D(7,2,6,10)          -179.6372         calculate D2E/DX2 analytically  !
 ! D15   D(7,2,6,32)           -62.4064         calculate D2E/DX2 analytically  !
 ! D16   D(8,2,6,9)            -51.3015         calculate D2E/DX2 analytically  !
 ! D17   D(8,2,6,10)            65.0795         calculate D2E/DX2 analytically  !
 ! D18   D(8,2,6,32)          -177.6896         calculate D2E/DX2 analytically  !
 ! D19   D(2,6,9,11)           -55.4145         calculate D2E/DX2 analytically  !
 ! D20   D(2,6,9,12)            58.7127         calculate D2E/DX2 analytically  !
 ! D21   D(2,6,9,13)           179.7688         calculate D2E/DX2 analytically  !
 ! D22   D(10,6,9,11)         -172.0213         calculate D2E/DX2 analytically  !
 ! D23   D(10,6,9,12)          -57.8941         calculate D2E/DX2 analytically  !
 ! D24   D(10,6,9,13)           63.1619         calculate D2E/DX2 analytically  !
 ! D25   D(32,6,9,11)           70.4501         calculate D2E/DX2 analytically  !
 ! D26   D(32,6,9,12)         -175.4226         calculate D2E/DX2 analytically  !
 ! D27   D(32,6,9,13)          -54.3666         calculate D2E/DX2 analytically  !
 ! D28   D(2,6,32,33)         -115.75           calculate D2E/DX2 analytically  !
 ! D29   D(2,6,32,34)           67.3941         calculate D2E/DX2 analytically  !
 ! D30   D(9,6,32,33)          119.2614         calculate D2E/DX2 analytically  !
 ! D31   D(9,6,32,34)          -57.5944         calculate D2E/DX2 analytically  !
 ! D32   D(10,6,32,33)           1.7157         calculate D2E/DX2 analytically  !
 ! D33   D(10,6,32,34)        -175.1401         calculate D2E/DX2 analytically  !
 ! D34   D(6,9,13,14)         -153.8482         calculate D2E/DX2 analytically  !
 ! D35   D(6,9,13,15)          -37.0849         calculate D2E/DX2 analytically  !
 ! D36   D(6,9,13,22)           81.4227         calculate D2E/DX2 analytically  !
 ! D37   D(11,9,13,14)          81.4107         calculate D2E/DX2 analytically  !
 ! D38   D(11,9,13,15)        -161.8261         calculate D2E/DX2 analytically  !
 ! D39   D(11,9,13,22)         -43.3184         calculate D2E/DX2 analytically  !
 ! D40   D(12,9,13,14)         -33.4547         calculate D2E/DX2 analytically  !
 ! D41   D(12,9,13,15)          83.3086         calculate D2E/DX2 analytically  !
 ! D42   D(12,9,13,22)        -158.1838         calculate D2E/DX2 analytically  !
 ! D43   D(9,13,14,16)         -59.9228         calculate D2E/DX2 analytically  !
 ! D44   D(9,13,14,17)          55.1989         calculate D2E/DX2 analytically  !
 ! D45   D(9,13,14,18)         177.0893         calculate D2E/DX2 analytically  !
 ! D46   D(15,13,14,16)       -177.031          calculate D2E/DX2 analytically  !
 ! D47   D(15,13,14,17)        -61.9092         calculate D2E/DX2 analytically  !
 ! D48   D(15,13,14,18)         59.9811         calculate D2E/DX2 analytically  !
 ! D49   D(22,13,14,16)         66.2734         calculate D2E/DX2 analytically  !
 ! D50   D(22,13,14,17)       -178.6048         calculate D2E/DX2 analytically  !
 ! D51   D(22,13,14,18)        -56.7145         calculate D2E/DX2 analytically  !
 ! D52   D(9,13,22,23)        -121.8899         calculate D2E/DX2 analytically  !
 ! D53   D(9,13,22,24)          57.9837         calculate D2E/DX2 analytically  !
 ! D54   D(14,13,22,23)        113.636          calculate D2E/DX2 analytically  !
 ! D55   D(14,13,22,24)        -66.4905         calculate D2E/DX2 analytically  !
 ! D56   D(15,13,22,23)         -3.0607         calculate D2E/DX2 analytically  !
 ! D57   D(15,13,22,24)        176.8128         calculate D2E/DX2 analytically  !
 ! D58   D(13,14,18,19)       -176.8055         calculate D2E/DX2 analytically  !
 ! D59   D(13,14,18,20)        -56.9623         calculate D2E/DX2 analytically  !
 ! D60   D(13,14,18,21)         62.7985         calculate D2E/DX2 analytically  !
 ! D61   D(16,14,18,19)         60.6219         calculate D2E/DX2 analytically  !
 ! D62   D(16,14,18,20)       -179.5349         calculate D2E/DX2 analytically  !
 ! D63   D(16,14,18,21)        -59.7741         calculate D2E/DX2 analytically  !
 ! D64   D(17,14,18,19)        -55.6072         calculate D2E/DX2 analytically  !
 ! D65   D(17,14,18,20)         64.236          calculate D2E/DX2 analytically  !
 ! D66   D(17,14,18,21)       -176.0032         calculate D2E/DX2 analytically  !
 ! D67   D(13,22,23,25)        178.862          calculate D2E/DX2 analytically  !
 ! D68   D(13,22,23,26)          1.0885         calculate D2E/DX2 analytically  !
 ! D69   D(24,22,23,25)         -1.0152         calculate D2E/DX2 analytically  !
 ! D70   D(24,22,23,26)       -178.7886         calculate D2E/DX2 analytically  !
 ! D71   D(13,22,24,27)       -178.4226         calculate D2E/DX2 analytically  !
 ! D72   D(13,22,24,28)         -0.4732         calculate D2E/DX2 analytically  !
 ! D73   D(23,22,24,27)          1.455          calculate D2E/DX2 analytically  !
 ! D74   D(23,22,24,28)        179.4044         calculate D2E/DX2 analytically  !
 ! D75   D(22,23,25,29)          0.637          calculate D2E/DX2 analytically  !
 ! D76   D(22,23,25,30)       -177.4525         calculate D2E/DX2 analytically  !
 ! D77   D(26,23,25,29)        178.4119         calculate D2E/DX2 analytically  !
 ! D78   D(26,23,25,30)          0.3224         calculate D2E/DX2 analytically  !
 ! D79   D(22,24,27,29)         -1.5262         calculate D2E/DX2 analytically  !
 ! D80   D(22,24,27,31)        176.5948         calculate D2E/DX2 analytically  !
 ! D81   D(28,24,27,29)       -179.4929         calculate D2E/DX2 analytically  !
 ! D82   D(28,24,27,31)         -1.3719         calculate D2E/DX2 analytically  !
 ! D83   D(23,25,29,27)         -0.6468         calculate D2E/DX2 analytically  !
 ! D84   D(23,25,29,45)       -177.5238         calculate D2E/DX2 analytically  !
 ! D85   D(30,25,29,27)        177.4613         calculate D2E/DX2 analytically  !
 ! D86   D(30,25,29,45)          0.5844         calculate D2E/DX2 analytically  !
 ! D87   D(24,27,29,25)          1.0879         calculate D2E/DX2 analytically  !
 ! D88   D(24,27,29,45)        177.8826         calculate D2E/DX2 analytically  !
 ! D89   D(31,27,29,25)       -177.0281         calculate D2E/DX2 analytically  !
 ! D90   D(31,27,29,45)         -0.2333         calculate D2E/DX2 analytically  !
 ! D91   D(25,29,45,46)         21.9137         calculate D2E/DX2 analytically  !
 ! D92   D(25,29,45,47)        141.9103         calculate D2E/DX2 analytically  !
 ! D93   D(25,29,45,73)        -97.1734         calculate D2E/DX2 analytically  !
 ! D94   D(27,29,45,46)       -154.8421         calculate D2E/DX2 analytically  !
 ! D95   D(27,29,45,47)        -34.8455         calculate D2E/DX2 analytically  !
 ! D96   D(27,29,45,73)         86.0707         calculate D2E/DX2 analytically  !
 ! D97   D(6,32,33,35)        -174.8266         calculate D2E/DX2 analytically  !
 ! D98   D(6,32,33,36)           2.9274         calculate D2E/DX2 analytically  !
 ! D99   D(34,32,33,35)          2.114          calculate D2E/DX2 analytically  !
 ! D100  D(34,32,33,36)        179.868          calculate D2E/DX2 analytically  !
 ! D101  D(6,32,34,37)         173.5039         calculate D2E/DX2 analytically  !
 ! D102  D(6,32,34,38)          -2.1461         calculate D2E/DX2 analytically  !
 ! D103  D(33,32,34,37)         -3.4354         calculate D2E/DX2 analytically  !
 ! D104  D(33,32,34,38)       -179.0854         calculate D2E/DX2 analytically  !
 ! D105  D(32,33,35,39)          0.2825         calculate D2E/DX2 analytically  !
 ! D106  D(32,33,35,40)        177.1465         calculate D2E/DX2 analytically  !
 ! D107  D(36,33,35,39)       -177.4697         calculate D2E/DX2 analytically  !
 ! D108  D(36,33,35,40)         -0.6057         calculate D2E/DX2 analytically  !
 ! D109  D(32,34,37,39)          2.3521         calculate D2E/DX2 analytically  !
 ! D110  D(32,34,37,41)       -174.0725         calculate D2E/DX2 analytically  !
 ! D111  D(38,34,37,39)        178.0374         calculate D2E/DX2 analytically  !
 ! D112  D(38,34,37,41)          1.6129         calculate D2E/DX2 analytically  !
 ! D113  D(33,35,39,37)         -1.4163         calculate D2E/DX2 analytically  !
 ! D114  D(33,35,39,42)        172.682          calculate D2E/DX2 analytically  !
 ! D115  D(40,35,39,37)       -178.2838         calculate D2E/DX2 analytically  !
 ! D116  D(40,35,39,42)         -4.1855         calculate D2E/DX2 analytically  !
 ! D117  D(34,37,39,35)          0.1168         calculate D2E/DX2 analytically  !
 ! D118  D(34,37,39,42)       -173.9557         calculate D2E/DX2 analytically  !
 ! D119  D(41,37,39,35)        176.5672         calculate D2E/DX2 analytically  !
 ! D120  D(41,37,39,42)          2.4948         calculate D2E/DX2 analytically  !
 ! D121  D(35,39,42,43)       -138.4703         calculate D2E/DX2 analytically  !
 ! D122  D(35,39,42,44)        -19.6953         calculate D2E/DX2 analytically  !
 ! D123  D(35,39,42,72)         99.7402         calculate D2E/DX2 analytically  !
 ! D124  D(37,39,42,43)         35.5046         calculate D2E/DX2 analytically  !
 ! D125  D(37,39,42,44)        154.2796         calculate D2E/DX2 analytically  !
 ! D126  D(37,39,42,72)        -86.285          calculate D2E/DX2 analytically  !
 ! D127  D(39,42,72,48)        174.2826         calculate D2E/DX2 analytically  !
 ! D128  D(39,42,72,52)         55.1108         calculate D2E/DX2 analytically  !
 ! D129  D(39,42,72,56)        -66.8985         calculate D2E/DX2 analytically  !
 ! D130  D(43,42,72,48)         49.1993         calculate D2E/DX2 analytically  !
 ! D131  D(43,42,72,52)        -69.9725         calculate D2E/DX2 analytically  !
 ! D132  D(43,42,72,56)        168.0183         calculate D2E/DX2 analytically  !
 ! D133  D(44,42,72,48)        -63.044          calculate D2E/DX2 analytically  !
 ! D134  D(44,42,72,52)        177.7842         calculate D2E/DX2 analytically  !
 ! D135  D(44,42,72,56)         55.775          calculate D2E/DX2 analytically  !
 ! D136  D(29,45,77,74)        159.1823         calculate D2E/DX2 analytically  !
 ! D137  D(29,45,77,80)        -95.0808         calculate D2E/DX2 analytically  !
 ! D138  D(29,45,77,82)         -8.4381         calculate D2E/DX2 analytically  !
 ! D139  D(47,45,77,74)         40.0383         calculate D2E/DX2 analytically  !
 ! D140  D(47,45,77,80)        145.7752         calculate D2E/DX2 analytically  !
 ! D141  D(47,45,77,82)       -127.5821         calculate D2E/DX2 analytically  !
 ! D142  D(73,45,77,74)        -73.6594         calculate D2E/DX2 analytically  !
 ! D143  D(73,45,77,80)         32.0775         calculate D2E/DX2 analytically  !
 ! D144  D(73,45,77,82)        118.7202         calculate D2E/DX2 analytically  !
 ! D145  D(29,45,73,60)        177.1595         calculate D2E/DX2 analytically  !
 ! D146  D(29,45,73,64)        -63.9728         calculate D2E/DX2 analytically  !
 ! D147  D(29,45,73,68)         58.1145         calculate D2E/DX2 analytically  !
 ! D148  D(46,45,73,60)         56.1837         calculate D2E/DX2 analytically  !
 ! D149  D(46,45,73,64)        175.0514         calculate D2E/DX2 analytically  !
 ! D150  D(46,45,73,68)        -62.8613         calculate D2E/DX2 analytically  !
 ! D151  D(47,45,73,60)        -58.8679         calculate D2E/DX2 analytically  !
 ! D152  D(47,45,73,64)         59.9998         calculate D2E/DX2 analytically  !
 ! D153  D(47,45,73,68)       -177.9129         calculate D2E/DX2 analytically  !
 ! D154  D(49,48,50,75)       -171.1723         calculate D2E/DX2 analytically  !
 ! D155  D(51,48,50,75)        -47.9121         calculate D2E/DX2 analytically  !
 ! D156  D(72,48,50,75)         70.1132         calculate D2E/DX2 analytically  !
 ! D157  D(49,48,51,81)       -175.3408         calculate D2E/DX2 analytically  !
 ! D158  D(50,48,51,81)         61.017          calculate D2E/DX2 analytically  !
 ! D159  D(72,48,51,81)        -57.099          calculate D2E/DX2 analytically  !
 ! D160  D(49,48,72,42)        179.8836         calculate D2E/DX2 analytically  !
 ! D161  D(49,48,72,52)        -59.2985         calculate D2E/DX2 analytically  !
 ! D162  D(49,48,72,56)         60.7907         calculate D2E/DX2 analytically  !
 ! D163  D(50,48,72,42)        -59.0486         calculate D2E/DX2 analytically  !
 ! D164  D(50,48,72,52)         61.7693         calculate D2E/DX2 analytically  !
 ! D165  D(50,48,72,56)       -178.1415         calculate D2E/DX2 analytically  !
 ! D166  D(51,48,72,42)         59.6747         calculate D2E/DX2 analytically  !
 ! D167  D(51,48,72,52)       -179.5074         calculate D2E/DX2 analytically  !
 ! D168  D(51,48,72,56)        -59.4181         calculate D2E/DX2 analytically  !
 ! D169  D(48,50,75,74)         40.3304         calculate D2E/DX2 analytically  !
 ! D170  D(48,50,75,86)        -91.2955         calculate D2E/DX2 analytically  !
 ! D171  D(48,50,75,89)       -158.3431         calculate D2E/DX2 analytically  !
 ! D172  D(48,51,81,82)        -43.4309         calculate D2E/DX2 analytically  !
 ! D173  D(48,51,81,83)       -146.8985         calculate D2E/DX2 analytically  !
 ! D174  D(53,52,72,42)        -66.2671         calculate D2E/DX2 analytically  !
 ! D175  D(53,52,72,48)        175.344          calculate D2E/DX2 analytically  !
 ! D176  D(53,52,72,56)         55.6348         calculate D2E/DX2 analytically  !
 ! D177  D(54,52,72,42)         53.6849         calculate D2E/DX2 analytically  !
 ! D178  D(54,52,72,48)        -64.704          calculate D2E/DX2 analytically  !
 ! D179  D(54,52,72,56)        175.5868         calculate D2E/DX2 analytically  !
 ! D180  D(55,52,72,42)        174.12           calculate D2E/DX2 analytically  !
 ! D181  D(55,52,72,48)         55.7311         calculate D2E/DX2 analytically  !
 ! D182  D(55,52,72,56)        -63.9781         calculate D2E/DX2 analytically  !
 ! D183  D(57,56,72,42)        -59.4885         calculate D2E/DX2 analytically  !
 ! D184  D(57,56,72,48)         58.2124         calculate D2E/DX2 analytically  !
 ! D185  D(57,56,72,52)        177.6203         calculate D2E/DX2 analytically  !
 ! D186  D(58,56,72,42)         60.6283         calculate D2E/DX2 analytically  !
 ! D187  D(58,56,72,48)        178.3292         calculate D2E/DX2 analytically  !
 ! D188  D(58,56,72,52)        -62.263          calculate D2E/DX2 analytically  !
 ! D189  D(59,56,72,42)       -179.1792         calculate D2E/DX2 analytically  !
 ! D190  D(59,56,72,48)        -61.4782         calculate D2E/DX2 analytically  !
 ! D191  D(59,56,72,52)         57.9296         calculate D2E/DX2 analytically  !
 ! D192  D(61,60,62,76)       -129.7033         calculate D2E/DX2 analytically  !
 ! D193  D(63,60,62,76)         -7.2557         calculate D2E/DX2 analytically  !
 ! D194  D(73,60,62,76)        111.1217         calculate D2E/DX2 analytically  !
 ! D195  D(61,60,73,45)        178.2946         calculate D2E/DX2 analytically  !
 ! D196  D(61,60,73,64)         58.3156         calculate D2E/DX2 analytically  !
 ! D197  D(61,60,73,68)        -61.4275         calculate D2E/DX2 analytically  !
 ! D198  D(62,60,73,45)        -60.6311         calculate D2E/DX2 analytically  !
 ! D199  D(62,60,73,64)        179.3899         calculate D2E/DX2 analytically  !
 ! D200  D(62,60,73,68)         59.6469         calculate D2E/DX2 analytically  !
 ! D201  D(63,60,73,45)         57.3459         calculate D2E/DX2 analytically  !
 ! D202  D(63,60,73,64)        -62.6331         calculate D2E/DX2 analytically  !
 ! D203  D(63,60,73,68)        177.6238         calculate D2E/DX2 analytically  !
 ! D204  D(60,62,76,74)        -69.3161         calculate D2E/DX2 analytically  !
 ! D205  D(65,64,73,45)        -56.8664         calculate D2E/DX2 analytically  !
 ! D206  D(65,64,73,60)         61.1405         calculate D2E/DX2 analytically  !
 ! D207  D(65,64,73,68)       -179.6152         calculate D2E/DX2 analytically  !
 ! D208  D(66,64,73,45)         63.6469         calculate D2E/DX2 analytically  !
 ! D209  D(66,64,73,60)       -178.3462         calculate D2E/DX2 analytically  !
 ! D210  D(66,64,73,68)        -59.1019         calculate D2E/DX2 analytically  !
 ! D211  D(67,64,73,45)       -176.3566         calculate D2E/DX2 analytically  !
 ! D212  D(67,64,73,60)        -58.3497         calculate D2E/DX2 analytically  !
 ! D213  D(67,64,73,68)         60.8946         calculate D2E/DX2 analytically  !
 ! D214  D(69,68,78,79)       -178.298          calculate D2E/DX2 analytically  !
 ! D215  D(69,68,78,80)         81.2063         calculate D2E/DX2 analytically  !
 ! D216  D(71,68,78,79)        -54.2111         calculate D2E/DX2 analytically  !
 ! D217  D(71,68,78,80)       -154.7068         calculate D2E/DX2 analytically  !
 ! D218  D(73,68,78,79)         60.8595         calculate D2E/DX2 analytically  !
 ! D219  D(73,68,78,80)        -39.6362         calculate D2E/DX2 analytically  !
 ! D220  D(69,68,73,45)        -61.2882         calculate D2E/DX2 analytically  !
 ! D221  D(69,68,73,60)       -179.4551         calculate D2E/DX2 analytically  !
 ! D222  D(69,68,73,64)         61.3233         calculate D2E/DX2 analytically  !
 ! D223  D(70,68,73,45)         60.2706         calculate D2E/DX2 analytically  !
 ! D224  D(70,68,73,60)        -57.8963         calculate D2E/DX2 analytically  !
 ! D225  D(70,68,73,64)       -177.1179         calculate D2E/DX2 analytically  !
 ! D226  D(71,68,73,45)        179.3771         calculate D2E/DX2 analytically  !
 ! D227  D(71,68,73,60)         61.2102         calculate D2E/DX2 analytically  !
 ! D228  D(71,68,73,64)        -58.0114         calculate D2E/DX2 analytically  !
 ! D229  D(76,74,75,50)        128.7535         calculate D2E/DX2 analytically  !
 ! D230  D(76,74,75,86)       -133.7817         calculate D2E/DX2 analytically  !
 ! D231  D(76,74,75,89)        -39.4677         calculate D2E/DX2 analytically  !
 ! D232  D(77,74,75,50)        -54.6587         calculate D2E/DX2 analytically  !
 ! D233  D(77,74,75,86)         42.8061         calculate D2E/DX2 analytically  !
 ! D234  D(77,74,75,89)        137.1201         calculate D2E/DX2 analytically  !
 ! D235  D(75,74,76,62)         94.5516         calculate D2E/DX2 analytically  !
 ! D236  D(77,74,76,62)        -81.8618         calculate D2E/DX2 analytically  !
 ! D237  D(75,74,77,46)        -78.5918         calculate D2E/DX2 analytically  !
 ! D238  D(75,74,77,80)       -160.9914         calculate D2E/DX2 analytically  !
 ! D239  D(75,74,77,82)         96.6819         calculate D2E/DX2 analytically  !
 ! D240  D(76,74,77,46)         97.9998         calculate D2E/DX2 analytically  !
 ! D241  D(76,74,77,80)         15.6002         calculate D2E/DX2 analytically  !
 ! D242  D(76,74,77,82)        -86.7265         calculate D2E/DX2 analytically  !
 ! D243  D(50,75,84,85)       -131.6101         calculate D2E/DX2 analytically  !
 ! D244  D(74,75,84,85)        121.676          calculate D2E/DX2 analytically  !
 ! D245  D(89,75,84,85)         15.354          calculate D2E/DX2 analytically  !
 ! D246  D(50,75,89,87)         82.1776         calculate D2E/DX2 analytically  !
 ! D247  D(74,75,89,87)       -117.5122         calculate D2E/DX2 analytically  !
 ! D248  D(86,75,89,87)         12.5542         calculate D2E/DX2 analytically  !
 ! D249  D(46,77,78,70)          4.6074         calculate D2E/DX2 analytically  !
 ! D250  D(46,77,78,79)       -104.0203         calculate D2E/DX2 analytically  !
 ! D251  D(74,77,78,70)         85.7432         calculate D2E/DX2 analytically  !
 ! D252  D(74,77,78,79)        -22.8845         calculate D2E/DX2 analytically  !
 ! D253  D(82,77,78,70)       -145.8178         calculate D2E/DX2 analytically  !
 ! D254  D(82,77,78,79)        105.5545         calculate D2E/DX2 analytically  !
 ! D255  D(46,77,81,51)        114.1752         calculate D2E/DX2 analytically  !
 ! D256  D(46,77,81,83)       -102.7424         calculate D2E/DX2 analytically  !
 ! D257  D(74,77,81,51)        -49.9973         calculate D2E/DX2 analytically  !
 ! D258  D(74,77,81,83)         93.0851         calculate D2E/DX2 analytically  !
 ! D259  D(80,77,81,51)       -161.8258         calculate D2E/DX2 analytically  !
 ! D260  D(80,77,81,83)        -18.7434         calculate D2E/DX2 analytically  !
 ! D261  D(88,87,89,75)       -157.3728         calculate D2E/DX2 analytically  !
 --------------------------------------------------------------------------------
 Trust Radius=3.00D-01 FncErr=1.00D-07 GrdErr=1.00D-06 EigMax=2.50D+02 EigMin=1.00D-04
 Number of steps in this run=    534 maximum allowed number of steps=    534.
 GradGradGradGradGradGradGradGradGradGradGradGradGradGradGradGradGradGrad

 Leave Link  103 at Thu Mar 14 13:17:14 2024, MaxMem=  1073741824 cpu:               1.4 elap:               0.3
 (Enter /packages/apps/gaussian/g16/g16/l202.exe)
 Stoichiometry    C28H52N2O7
 Framework group  C1[X(C28H52N2O7)]
 Deg. of freedom   261
 Full point group                 C1      NOp   1
 Largest Abelian subgroup         C1      NOp   1
 Largest concise Abelian subgroup C1      NOp   1
                         Standard orientation:                         
 ---------------------------------------------------------------------
 Center     Atomic      Atomic             Coordinates (Angstroms)
 Number     Number       Type             X           Y           Z
 ---------------------------------------------------------------------
      1          6           0        5.830556    2.800668   -0.836727
      2          6           0        5.645619    1.319563   -1.143622
      3          1           0        6.459816    3.280658   -1.586119
      4          1           0        4.872746    3.321624   -0.817431
      5          1           0        6.303987    2.941227    0.137062
      6          6           0        4.799926    0.576448   -0.099146
      7          1           0        5.180318    1.202211   -2.126368
      8          1           0        6.622445    0.833475   -1.207150
      9          6           0        4.798464   -0.933849   -0.391840
     10          1           0        5.283117    0.715223    0.873648
     11          1           0        4.454125   -1.106818   -1.415066
     12          1           0        5.839666   -1.265269   -0.370127
     13          6           0        3.990812   -1.813685    0.582144
     14          6           0        4.560495   -3.242886    0.606345
     15          1           0        4.112882   -1.398567    1.587901
     16          1           0        4.501467   -3.667443   -0.400201
     17          1           0        5.623734   -3.181847    0.850335
     18          6           0        3.865388   -4.167859    1.597871
     19          1           0        4.341419   -5.148211    1.616230
     20          1           0        3.906516   -3.756789    2.608514
     21          1           0        2.814881   -4.307623    1.342085
     22          6           0        2.503209   -1.833432    0.281078
     23          6           0        1.570701   -1.434955    1.230825
     24          6           0        2.030930   -2.250915   -0.961759
     25          6           0        0.213136   -1.430669    0.948419
     26          1           0        1.912093   -1.087524    2.197230
     27          6           0        0.678124   -2.239940   -1.251673
     28          1           0        2.730301   -2.559132   -1.729039
     29          6           0       -0.253140   -1.840229   -0.296316
     30          1           0       -0.495528   -1.077589    1.687807
     31          1           0        0.344089   -2.517057   -2.243830
     32          6           0        3.405854    1.153589    0.011365
     33          6           0        2.974723    1.754422    1.186291
     34          6           0        2.498383    1.039126   -1.039820
     35          6           0        1.663627    2.188333    1.325027
     36          1           0        3.661384    1.852855    2.018136
     37          6           0        1.184802    1.443948   -0.900563
     38          1           0        2.803268    0.561608   -1.962125
     39          6           0        0.750234    2.025297    0.290907
     40          1           0        1.335525    2.612415    2.266414
     41          1           0        0.470887    1.259514   -1.694800
     42          6           0       -0.698598    2.344860    0.503679
     43          1           0       -1.354066    1.609046    0.046638
     44          1           0       -0.943979    2.354918    1.562513
     45          6           0       -1.721420   -1.773205   -0.595174
     46          1           0       -2.194187   -1.053366    0.072067
     47          1           0       -1.909852   -1.464594   -1.621223
     48          6           0       -2.644065    3.772134    0.156866
     49          1           0       -2.977458    4.739248   -0.214188
     50          1           0       -3.099775    2.949025   -0.398213
     51          1           0       -2.868220    3.662841    1.215242
     52          6           0       -0.837063    3.859832   -1.465005
     53          1           0        0.241499    3.890526   -1.588601
     54          1           0       -1.249043    3.014293   -2.014503
     55          1           0       -1.277584    4.793452   -1.807017
     56          6           0       -0.515612    4.783241    0.763162
     57          1           0       -0.799989    4.666135    1.805869
     58          1           0        0.563488    4.709878    0.656559
     59          1           0       -0.864097    5.742019    0.386505
     60          6           0       -3.924756   -2.811364   -0.676500
     61          1           0       -4.467060   -3.748763   -0.571353
     62          1           0       -4.295178   -2.063142    0.025771
     63          1           0       -4.021683   -2.408022   -1.683221
     64          6           0       -1.992285   -4.110720   -1.355171
     65          1           0       -2.099062   -3.727749   -2.367051
     66          1           0       -0.950664   -4.335075   -1.145760
     67          1           0       -2.595366   -5.007161   -1.234426
     68          6           0       -2.332405   -3.580262    0.993999
     69          1           0       -1.281207   -3.767339    1.194442
     70          1           0       -2.740775   -2.833568    1.680674
     71          1           0       -2.897242   -4.506304    1.078962
     72          7           0       -1.157018    3.699321   -0.020424
     73          7           0       -2.477071   -3.082279   -0.403506
     74          6           0       -3.931206    0.466487    0.237077
     75          8           0       -3.651570    1.001136   -0.921192
     76          8           0       -5.006836   -0.132120    0.441372
     77          8           0       -2.994942    0.530966    1.153097
     78          8           0       -3.747625   -1.408779    2.812449
     79          1           0       -4.664792   -1.385622    2.527109
     80          1           0       -3.398699   -0.649263    2.281099
     81          8           0       -2.643087    2.366110    3.022666
     82          1           0       -2.869932    1.663929    2.360388
     83          1           0       -3.077375    2.095473    3.830052
     84          8           0       -1.595895    0.900533   -2.547467
     85          1           0       -2.099919    0.562351   -3.291638
     86          1           0       -2.289837    0.943544   -1.837330
     87          8           0       -4.186545   -0.539206   -2.998645
     88          1           0       -5.076324   -0.446134   -3.335085
     89          1           0       -4.156738    0.040199   -2.188534
 ---------------------------------------------------------------------
 Rotational constants (GHZ):           0.1240720           0.0806311           0.0604095
 Leave Link  202 at Thu Mar 14 13:17:15 2024, MaxMem=  1073741824 cpu:               2.1 elap:               0.3
 (Enter /packages/apps/gaussian/g16/g16/l301.exe)
 Standard basis: 6-311+G(2d,2p) (5D, 7F)
 Ernie: Thresh=  0.10000D-02 Tol=  0.10000D-05 Strict=F.
 There are  1541 symmetry adapted cartesian basis functions of A   symmetry.
 There are  1467 symmetry adapted basis functions of A   symmetry.
  1467 basis functions,  2126 primitive gaussians,  1541 cartesian basis functions
   145 alpha electrons      145 beta electrons
       nuclear repulsion energy      4864.5150558022 Hartrees.
 IExCor= 4639 DFT=T Ex+Corr=wB97XD ExCW=0 ScaHFX=  1.000000
 ScaDFX=  1.000000  1.000000  1.000000  1.000000 ScalE2=  1.000000  1.000000
 IRadAn=      5 IRanWt=     -1 IRanGd=            0 ICorTp=0 IEmpDi=121
 HFx  wShort=  0.000000 wLong=  0.200000 cFull=  0.222036 cShort=  0.000000 cLong=  0.777964
 DFx  wShort=  0.000000 wLong=  0.200000 cFull=  0.000000 cShort=  0.000000 cLong=  1.000000
 NAtoms=   89 NActive=   89 NUniq=   89 SFac= 1.00D+00 NAtFMM=   60 NAOKFM=T Big=T
 Integral buffers will be    131072 words long.
 Raffenetti 2 integral format.
 Two-electron integral symmetry is turned on.
 R6Disp:  Grimme-D2 Dispersion energy=       -0.1068409071 Hartrees.
 Nuclear repulsion after empirical dispersion term =     4864.4082148951 Hartrees.
 Leave Link  301 at Thu Mar 14 13:17:16 2024, MaxMem=  1073741824 cpu:               2.2 elap:               0.4
 (Enter /packages/apps/gaussian/g16/g16/l302.exe)
 NPDir=0 NMtPBC=     1 NCelOv=     1 NCel=       1 NClECP=     1 NCelD=      1
         NCelK=      1 NCelE2=     1 NClLst=     1 CellRange=     0.0.
 One-electron integrals computed using PRISM.
 One-electron integral symmetry used in STVInt
 NBasis=  1467 RedAO= T EigKep=  1.10D-06  NBF=  1467
 NBsUse=  1457 1.00D-06 EigRej=  9.41D-07 NBFU=  1457
 Precomputing XC quadrature grid using
 IXCGrd= 4 IRadAn=           5 IRanWt=          -1 IRanGd=           0 AccXCQ= 0.00D+00.
 Generated NRdTot=       0 NPtTot=           0 NUsed=           0 NTot=          32
 NSgBfM=  1434  1409  1419  1419  1434 MxSgAt=    89 MxSgA2=    89.
 Leave Link  302 at Thu Mar 14 13:17:20 2024, MaxMem=  1073741824 cpu:              56.7 elap:               3.4
 (Enter /packages/apps/gaussian/g16/g16/l303.exe)
 DipDrv:  MaxL=1.
 Leave Link  303 at Thu Mar 14 13:17:22 2024, MaxMem=  1073741824 cpu:               7.1 elap:               1.1
 (Enter /packages/apps/gaussian/g16/g16/l401.exe)
 ExpMin= 4.38D-02 ExpMax= 8.59D+03 ExpMxC= 1.30D+03 IAcc=3 IRadAn=         5 AccDes= 0.00D+00
 Harris functional with IExCor= 4639 and IRadAn=       5 diagonalized for initial guess.
 HarFok:  IExCor= 4639 AccDes= 0.00D+00 IRadAn=         5 IDoV= 1 UseB2=F ITyADJ=14
 ICtDFT=  3500011 ScaDFX=  1.000000  1.000000  1.000000  1.000000
 FoFCou: FMM=F IPFlag=           0 FMFlag=      100000 FMFlg1=        2001
         NFxFlg=           0 DoJE=T BraDBF=F KetDBF=T FulRan=T
         wScrn=  0.000000 ICntrl=       500 IOpCl=  0 I1Cent=   200000004 NGrid=           0
         NMat0=    1 NMatS0=      1 NMatT0=    0 NMatD0=    1 NMtDS0=    0 NMtDT0=    0
 Petite list used in FoFCou.
 Harris En= -1658.63654585228    
 JPrj=0 DoOrth=F DoCkMO=F.
 Leave Link  401 at Thu Mar 14 13:17:32 2024, MaxMem=  1073741824 cpu:             175.0 elap:               9.3
 (Enter /packages/apps/gaussian/g16/g16/l502.exe)
 Integral symmetry usage will be decided dynamically.
 Closed shell SCF:
 Using DIIS extrapolation, IDIIS=  1040.
 NGot=  1073741824 LenX=  1068947479 LenY=  1066571257
 Requested convergence on RMS density matrix=1.00D-08 within 128 cycles.
 Requested convergence on MAX density matrix=1.00D-06.
 Requested convergence on             energy=1.00D-06.
 No special actions if energy rises.
 Fock matrices will be formed incrementally for  20 cycles.

 Cycle   1  Pass 1  IDiag  1:
 FoFJK:  IHMeth= 1 ICntrl=       0 DoSepK=T KAlg= 0 I1Cent=           0 FoldK=F
 IRaf=         1 NMat=       1 IRICut=       1 DoRegI=T DoRafI=F ISym2E= 0 IDoP0=0 IntGTp=1.
 FoFCou: FMM=T IPFlag=           0 FMFlag=      100000 FMFlg1=        2001
         NFxFlg=           0 DoJE=T BraDBF=F KetDBF=F FulRan=T
         wScrn=  0.000000 ICntrl=       500 IOpCl=  0 I1Cent=           0 NGrid=           0
         NMat0=    1 NMatS0=      1 NMatT0=    0 NMatD0=    1 NMtDS0=    0 NMtDT0=    0
 Symmetry not used in FoFCou.
 FMM levels:  10  Number of levels for PrismC:   9
 E= -1733.88112444236    
 DIIS: error= 4.99D-02 at cycle   1 NSaved=   1.
 NSaved= 1 IEnMin= 1 EnMin= -1733.88112444236     IErMin= 1 ErrMin= 4.99D-02
 ErrMax= 4.99D-02  0.00D+00 EMaxC= 1.00D-01 BMatC= 3.70D+00 BMatP= 3.70D+00
 IDIUse=3 WtCom= 5.01D-01 WtEn= 4.99D-01
 Coeff-Com:  0.100D+01
 Coeff-En:   0.100D+01
 Coeff:      0.100D+01
 Gap=     0.338 Goal=   None    Shift=    0.000
 GapD=    0.338 DampG=1.000 DampE=0.500 DampFc=0.5000 IDamp=-1.
 Damping current iteration by 5.00D-01
 RMSDP=4.33D-03 MaxDP=8.50D-01              OVMax= 1.29D-01

 Cycle   2  Pass 1  IDiag  1:
 RMSU=  1.43D-03    CP:  8.72D-01
 E= -1734.15128342229     Delta-E=       -0.270158979927 Rises=F Damp=T
 DIIS: error= 2.45D-02 at cycle   2 NSaved=   2.
 NSaved= 2 IEnMin= 2 EnMin= -1734.15128342229     IErMin= 2 ErrMin= 2.45D-02
 ErrMax= 2.45D-02  0.00D+00 EMaxC= 1.00D-01 BMatC= 7.68D-01 BMatP= 3.70D+00
 IDIUse=3 WtCom= 7.55D-01 WtEn= 2.45D-01
 Coeff-Com: -0.587D+00 0.159D+01
 Coeff-En:   0.000D+00 0.100D+01
 Coeff:     -0.443D+00 0.144D+01
 Gap=     0.312 Goal=   None    Shift=    0.000
 RMSDP=2.77D-03 MaxDP=5.18D-01 DE=-2.70D-01 OVMax= 1.03D-01

 Cycle   3  Pass 1  IDiag  1:
 RMSU=  1.25D-03    CP:  6.85D-01  1.50D+00
 E= -1734.31229321925     Delta-E=       -0.161009796959 Rises=F Damp=F
 DIIS: error= 9.72D-03 at cycle   3 NSaved=   3.
 NSaved= 3 IEnMin= 3 EnMin= -1734.31229321925     IErMin= 3 ErrMin= 9.72D-03
 ErrMax= 9.72D-03  0.00D+00 EMaxC= 1.00D-01 BMatC= 1.82D-01 BMatP= 7.68D-01
 IDIUse=3 WtCom= 9.03D-01 WtEn= 9.72D-02
 Coeff-Com: -0.348D+00 0.745D+00 0.603D+00
 Coeff-En:   0.000D+00 0.000D+00 0.100D+01
 Coeff:     -0.314D+00 0.673D+00 0.642D+00
 Gap=     0.288 Goal=   None    Shift=    0.000
 RMSDP=6.38D-04 MaxDP=8.10D-02 DE=-1.61D-01 OVMax= 4.80D-02

 Cycle   4  Pass 1  IDiag  1:
 RMSU=  3.63D-04    CP:  6.96D-01  1.74D+00  7.12D-01
 E= -1734.45273963982     Delta-E=       -0.140446420568 Rises=F Damp=F
 DIIS: error= 1.47D-03 at cycle   4 NSaved=   4.
 NSaved= 4 IEnMin= 4 EnMin= -1734.45273963982     IErMin= 4 ErrMin= 1.47D-03
 ErrMax= 1.47D-03  0.00D+00 EMaxC= 1.00D-01 BMatC= 5.59D-03 BMatP= 1.82D-01
[...]
 Alpha virt. eigenvalues --    1.80438   1.80781   1.81253   1.81794   1.82202
 Alpha virt. eigenvalues --    1.82304   1.83505   1.83726   1.84670   1.84712
 Alpha virt. eigenvalues --    1.84950   1.85352   1.85916   1.86126   1.87232
 Alpha virt. eigenvalues --    1.87500   1.87628   1.88530   1.88710   1.89803
 Alpha virt. eigenvalues --    1.90228   1.91005   1.91526   1.92079   1.92141
 Alpha virt. eigenvalues --    1.92890   1.93243   1.94117   1.94428   1.94808
 Alpha virt. eigenvalues --    1.95545   1.96111   1.96376   1.96675   1.97260
 Alpha virt. eigenvalues --    1.97944   1.98223   1.98520   1.99237   1.99758
 Alpha virt. eigenvalues --    2.00859   2.01733   2.02511   2.03372   2.03846
 Alpha virt. eigenvalues --    2.04448   2.04802   2.05231   2.06125   2.06800
 Alpha virt. eigenvalues --    2.07330   2.07678   2.08444   2.09221   2.09516
 Alpha virt. eigenvalues --    2.10693   2.11240   2.11523   2.12002   2.12714
 Alpha virt. eigenvalues --    2.13201   2.13469   2.14108   2.14877   2.15160
 Alpha virt. eigenvalues --    2.16401   2.16488   2.17206   2.18761   2.19367
 Alpha virt. eigenvalues --    2.20057   2.21416   2.22314   2.23455   2.23793
 Alpha virt. eigenvalues --    2.24932   2.25138   2.26216   2.26888   2.28144
 Alpha virt. eigenvalues --    2.28806   2.29184   2.29856   2.30626   2.32775
 Alpha virt. eigenvalues --    2.36357   2.42224   2.46714   2.50055   2.51884
 Alpha virt. eigenvalues --    2.52301   2.54218   2.55137   2.55392   2.56841
 Alpha virt. eigenvalues --    2.57651   2.61041   2.63866   2.65462   2.69486
 Alpha virt. eigenvalues --    2.71411   2.73587   2.74878   2.76327   2.77340
 Alpha virt. eigenvalues --    2.81518   2.84313   2.85229   2.87272   2.87447
 Alpha virt. eigenvalues --    2.87714   2.89502   2.89802   2.90327   2.91981
 Alpha virt. eigenvalues --    2.93681   2.94251   2.95192   2.95252   2.96321
 Alpha virt. eigenvalues --    2.97197   2.98608   2.99484   3.00044   3.00617
 Alpha virt. eigenvalues --    3.01136   3.01437   3.01803   3.02530   3.02800
 Alpha virt. eigenvalues --    3.03707   3.04176   3.04392   3.05649   3.05886
 Alpha virt. eigenvalues --    3.06670   3.07133   3.07522   3.08585   3.08845
 Alpha virt. eigenvalues --    3.10533   3.11486   3.11884   3.12962   3.13421
 Alpha virt. eigenvalues --    3.14333   3.15151   3.16089   3.16600   3.17563
 Alpha virt. eigenvalues --    3.18326   3.19221   3.19423   3.20023   3.20636
 Alpha virt. eigenvalues --    3.21233   3.21749   3.22353   3.22443   3.22569
 Alpha virt. eigenvalues --    3.23903   3.24289   3.24868   3.25869   3.26163
 Alpha virt. eigenvalues --    3.26951   3.27552   3.27907   3.28426   3.29147
 Alpha virt. eigenvalues --    3.29378   3.30203   3.30552   3.30968   3.31291
 Alpha virt. eigenvalues --    3.31604   3.32466   3.33280   3.33804   3.34634
 Alpha virt. eigenvalues --    3.34853   3.35432   3.35658   3.36352   3.36500
 Alpha virt. eigenvalues --    3.37201   3.37451   3.37958   3.38404   3.39307
 Alpha virt. eigenvalues --    3.39762   3.39904   3.40487   3.41047   3.41274
 Alpha virt. eigenvalues --    3.42298   3.42428   3.43075   3.43132   3.43448
 Alpha virt. eigenvalues --    3.43938   3.44292   3.44590   3.45068   3.46005
 Alpha virt. eigenvalues --    3.46102   3.46513   3.46906   3.47522   3.47956
 Alpha virt. eigenvalues --    3.48438   3.48694   3.48950   3.49701   3.49905
 Alpha virt. eigenvalues --    3.51362   3.51479   3.51815   3.52457   3.52586
 Alpha virt. eigenvalues --    3.52854   3.53380   3.53493   3.53878   3.54259
 Alpha virt. eigenvalues --    3.54590   3.54880   3.55393   3.56095   3.56592
 Alpha virt. eigenvalues --    3.56961   3.57623   3.58176   3.58267   3.58788
 Alpha virt. eigenvalues --    3.59058   3.59739   3.60004   3.60825   3.61165
 Alpha virt. eigenvalues --    3.61908   3.62295   3.62528   3.63061   3.63273
 Alpha virt. eigenvalues --    3.63381   3.63977   3.64497   3.64507   3.64867
 Alpha virt. eigenvalues --    3.65745   3.65859   3.66303   3.66736   3.66900
 Alpha virt. eigenvalues --    3.67439   3.67790   3.68300   3.68849   3.68987
 Alpha virt. eigenvalues --    3.69394   3.69752   3.70066   3.70512   3.70866
 Alpha virt. eigenvalues --    3.71101   3.71210   3.71623   3.72043   3.72703
 Alpha virt. eigenvalues --    3.72931   3.73429   3.73734   3.73850   3.74120
 Alpha virt. eigenvalues --    3.74596   3.75044   3.75522   3.75761   3.76293
 Alpha virt. eigenvalues --    3.76453   3.77047   3.77346   3.77795   3.78731
 Alpha virt. eigenvalues --    3.78885   3.79187   3.79854   3.80672   3.80884
 Alpha virt. eigenvalues --    3.81274   3.81762   3.81821   3.82278   3.82432
 Alpha virt. eigenvalues --    3.82582   3.83685   3.84072   3.84161   3.84463
 Alpha virt. eigenvalues --    3.84751   3.85328   3.85738   3.86110   3.86717
 Alpha virt. eigenvalues --    3.87116   3.87888   3.88128   3.88698   3.89112
 Alpha virt. eigenvalues --    3.89697   3.89963   3.90445   3.90715   3.90987
 Alpha virt. eigenvalues --    3.91629   3.92399   3.92746   3.93420   3.93701
 Alpha virt. eigenvalues --    3.94363   3.94487   3.95463   3.95558   3.95823
 Alpha virt. eigenvalues --    3.96552   3.97201   3.97846   3.98225   3.98553
 Alpha virt. eigenvalues --    3.98810   3.98993   3.99866   4.00092   4.00698
 Alpha virt. eigenvalues --    4.00828   4.00998   4.01577   4.01982   4.02737
 Alpha virt. eigenvalues --    4.02842   4.03140   4.03360   4.04014   4.04387
 Alpha virt. eigenvalues --    4.04867   4.05201   4.05321   4.05779   4.05890
 Alpha virt. eigenvalues --    4.06636   4.07299   4.07925   4.08034   4.08622
 Alpha virt. eigenvalues --    4.08681   4.09178   4.09734   4.10075   4.10444
 Alpha virt. eigenvalues --    4.10849   4.11245   4.11364   4.11749   4.12525
 Alpha virt. eigenvalues --    4.12805   4.12975   4.13992   4.14128   4.14531
 Alpha virt. eigenvalues --    4.14703   4.14945   4.15015   4.15414   4.15934
 Alpha virt. eigenvalues --    4.16408   4.16481   4.16637   4.16949   4.17741
 Alpha virt. eigenvalues --    4.18008   4.18475   4.18826   4.19102   4.19630
 Alpha virt. eigenvalues --    4.19730   4.20208   4.20350   4.20713   4.21097
 Alpha virt. eigenvalues --    4.21536   4.21886   4.22010   4.22196   4.22614
 Alpha virt. eigenvalues --    4.22954   4.23509   4.24014   4.24077   4.24434
 Alpha virt. eigenvalues --    4.24980   4.25488   4.25642   4.25968   4.26756
 Alpha virt. eigenvalues --    4.27208   4.27418   4.27493   4.27992   4.28669
 Alpha virt. eigenvalues --    4.28899   4.29312   4.29940   4.29960   4.30423
 Alpha virt. eigenvalues --    4.30986   4.31418   4.31842   4.32318   4.32787
 Alpha virt. eigenvalues --    4.33296   4.33735   4.34164   4.34323   4.34837
 Alpha virt. eigenvalues --    4.35061   4.35332   4.36080   4.36406   4.36733
 Alpha virt. eigenvalues --    4.37020   4.37504   4.37698   4.37973   4.38852
 Alpha virt. eigenvalues --    4.39240   4.39810   4.39996   4.40912   4.41066
 Alpha virt. eigenvalues --    4.41529   4.41797   4.42018   4.42796   4.43318
 Alpha virt. eigenvalues --    4.43525   4.44010   4.44146   4.44694   4.45323
 Alpha virt. eigenvalues --    4.45423   4.46027   4.46079   4.46469   4.47289
 Alpha virt. eigenvalues --    4.47815   4.47934   4.48772   4.49069   4.49521
 Alpha virt. eigenvalues --    4.50134   4.50292   4.50797   4.51480   4.52096
 Alpha virt. eigenvalues --    4.52697   4.53827   4.54284   4.55257   4.55523
 Alpha virt. eigenvalues --    4.55834   4.58581   4.58767   4.59099   4.60822
 Alpha virt. eigenvalues --    4.61986   4.62214   4.63048   4.64997   4.65122
 Alpha virt. eigenvalues --    4.65700   4.66747   4.67540   4.68877   4.69759
 Alpha virt. eigenvalues --    4.70370   4.70949   4.71256   4.72838   4.73508
 Alpha virt. eigenvalues --    4.74913   4.76156   4.76627   4.79650   4.80990
 Alpha virt. eigenvalues --    4.82919   4.84364   4.85314   4.87569   4.88353
 Alpha virt. eigenvalues --    4.98494   5.00537   5.02309   5.03324   5.04119
 Alpha virt. eigenvalues --    5.04368   5.04918   5.05069   5.05700   5.06339
 Alpha virt. eigenvalues --    5.07329   5.13272   5.13460   5.14040   5.14180
 Alpha virt. eigenvalues --    5.15046   5.15258   5.16235   5.16692   5.16940
 Alpha virt. eigenvalues --    5.17295   5.17842   5.18343   5.18627   5.19162
 Alpha virt. eigenvalues --    5.20092   5.20340   5.20743   5.21465   5.22515
 Alpha virt. eigenvalues --    5.22746   5.22921   5.23665   5.24989   5.26361
 Alpha virt. eigenvalues --    5.26943   5.28020   5.30090   5.33380   5.35123
 Alpha virt. eigenvalues --    5.35641   5.36476   5.37109   5.38387   5.40877
 Alpha virt. eigenvalues --    5.43031   5.44702   5.47001   5.47128   5.47521
 Alpha virt. eigenvalues --    5.47621   5.48265   5.49516   5.49964   5.55881
 Alpha virt. eigenvalues --    5.64060   5.71326   5.73982   5.79644   5.79848
 Alpha virt. eigenvalues --    5.81802   5.82801   5.84812   5.86251   5.88400
 Alpha virt. eigenvalues --    5.90019   5.92171   5.93984   6.01324   6.22354
 Alpha virt. eigenvalues --    6.31552   6.32065   6.33197   6.36122   6.37530
 Alpha virt. eigenvalues --    7.02274   7.03515   7.04040   7.05631   7.07016
 Alpha virt. eigenvalues --    7.07897   7.09106   7.10390   7.11735   7.13703
 Alpha virt. eigenvalues --    7.17341   7.20693   7.21420   7.22371   7.23233
 Alpha virt. eigenvalues --    7.26165   7.27758   7.29117   7.35311   7.42617
 Alpha virt. eigenvalues --    7.45215   7.46680   7.48379   7.49353   7.52724
 Alpha virt. eigenvalues --    7.55339   7.58564   7.63042   7.65828   7.69236
 Alpha virt. eigenvalues --    7.70752   7.73879   7.77076   7.77717   7.80880
 Alpha virt. eigenvalues --   23.90520  23.94289  24.04094  24.05188  24.09103
 Alpha virt. eigenvalues --   24.11289  24.12366  24.14323  24.16903  24.18996
 Alpha virt. eigenvalues --   24.19173  24.19645  24.20535  24.21584  24.21745
 Alpha virt. eigenvalues --   24.21881  24.22604  24.23727  24.23905  24.33151
 Alpha virt. eigenvalues --   24.33770  24.34619  24.36009  24.36628  24.39521
 Alpha virt. eigenvalues --   24.44539  24.47155  24.49320  35.63408  35.65147
 Alpha virt. eigenvalues --   50.15028  50.17742  50.19022  50.22372  50.31913
 Alpha virt. eigenvalues --   50.33983  50.41269
          Condensed to atoms (all electrons):
 Mulliken charges:
               1
     1  C   -0.458511
     2  C   -0.215103
     3  H    0.121614
     4  H    0.125833
     5  H    0.112189
     6  C    0.173536
     7  H    0.125162
     8  H    0.113251
     9  C   -0.550310
    10  H    0.119612
    11  H    0.139611
    12  H    0.124991
    13  C    0.169843
    14  C   -0.257550
    15  H    0.111256
    16  H    0.125864
    17  H    0.120397
    18  C   -0.453492
    19  H    0.123366
    20  H    0.117310
    21  H    0.123465
    22  C    0.625738
    23  C   -0.237567
    24  C   -0.524164
    25  C   -0.419546
    26  H    0.134145
    27  C   -0.314565
    28  H    0.137987
    29  C   -0.046953
    30  H    0.201448
    31  H    0.140007
    32  C    0.263327
    33  C   -0.274565
    34  C   -0.344595
    35  C   -0.326342
    36  H    0.128418
    37  C   -0.154345
    38  H    0.132886
    39  C   -0.004908
    40  H    0.143081
    41  H    0.180476
    42  C   -0.907934
    43  H    0.272337
    44  H    0.247739
    45  C   -0.581175
    46  H    0.158834
    47  H    0.195741
    48  C   -0.165504
    49  H    0.152822
    50  H    0.234857
    51  H    0.206485
    52  C   -0.241786
    53  H    0.166970
    54  H    0.230585
    55  H    0.155203
    56  C   -0.177449
    57  H    0.190694
    58  H    0.173053
    59  H    0.152773
    60  C   -0.157836
    61  H    0.151630
    62  H    0.203060
    63  H    0.209840
    64  C   -0.158266
    65  H    0.179514
    66  H    0.182019
    67  H    0.159022
    68  C   -0.269003
    69  H    0.167878
    70  H    0.276773
    71  H    0.149628
    72  N    0.078798
    73  N    0.133475
    74  C    0.835028
    75  O   -0.866277
    76  O   -0.613643
    77  O   -0.795950
    78  O   -0.624106
    79  H    0.239546
    80  H    0.381631
    81  O   -0.671422
    82  H    0.428938
    83  H    0.298047
    84  O   -0.668109
    85  H    0.305289
    86  H    0.436295
    87  O   -0.668590
    88  H    0.261673
    89  H    0.398573
 Sum of Mulliken charges =  -0.00000
 Mulliken charges with hydrogens summed into heavy atoms:
               1
     1  C   -0.098875
     2  C    0.023310
     6  C    0.293148
     9  C   -0.285709
    13  C    0.281098
    14  C   -0.011288
    18  C   -0.089350
    22  C    0.625738
    23  C   -0.103422
    24  C   -0.386178
    25  C   -0.218097
    27  C   -0.174557
    29  C   -0.046953
    32  C    0.263327
    33  C   -0.146146
    34  C   -0.211709
    35  C   -0.183261
    37  C    0.026131
    39  C   -0.004908
    42  C   -0.387858
    45  C   -0.226601
    48  C    0.428660
    52  C    0.310972
    56  C    0.339071
    60  C    0.406693
    64  C    0.362289
    68  C    0.325276
    72  N    0.078798
    73  N    0.133475
    74  C    0.835028
    75  O   -0.866277
    76  O   -0.613643
    77  O   -0.795950
    78  O   -0.002928
    81  O    0.055563
    84  O    0.073475
    87  O   -0.008344
 Electronic spatial extent (au):  <R**2>=          19424.1713
 Charge=             -0.0000 electrons
 Dipole moment (field-independent basis, Debye):
    X=              9.3631    Y=             -0.6748    Z=             -2.9901  Tot=              9.8521
 Quadrupole moment (field-independent basis, Debye-Ang):
   XX=           -259.3653   YY=           -172.7003   ZZ=           -238.5197
   XY=              9.1233   XZ=             13.7923   YZ=              8.6382
 Traceless Quadrupole moment (field-independent basis, Debye-Ang):
   XX=            -35.8369   YY=             50.8281   ZZ=            -14.9913
   XY=              9.1233   XZ=             13.7923   YZ=              8.6382
 Octapole moment (field-independent basis, Debye-Ang**2):
  XXX=            140.3824  YYY=             68.7703  ZZZ=            -20.5548  XYY=           -146.2873
  XXY=            -56.4430  XXZ=            -45.2227  XZZ=              0.4729  YZZ=             14.4110
  YYZ=            -36.8286  XYZ=            -13.8546
 Hexadecapole moment (field-independent basis, Debye-Ang**3):
 XXXX=         -14827.1774 YYYY=          -7530.8161 ZZZZ=          -2780.3799 XXXY=            148.9940
 XXXZ=            290.5853 YYYX=             75.8119 YYYZ=             61.6371 ZZZX=             89.2177
 ZZZY=            125.5604 XXYY=          -3582.8733 XXZZ=          -2782.9916 YYZZ=          -1907.8117
 XXYZ=             71.3055 YYXZ=             84.8651 ZZXY=            -48.7599
 N-N= 4.864611258684D+03 E-N=-1.377833444339D+04  KE= 1.727517809819D+03
 No NMR shielding tensors so no spin-rotation constants.
 Leave Link  601 at Fri Mar 15 21:07:30 2024, MaxMem=  1073741824 cpu:              55.0 elap:               3.5
 (Enter /packages/apps/gaussian/g16/g16/l9999.exe)
 1\1\GINC-C010\FOpt\RwB97XD\6-311+G(2d,2p)\C28H52N2O7\MDTURNE9\15-Mar-2
 024\0\\#p opt=calcfc wb97xd/6-311+g(2d,2p) geom=connectivity\\carb4wat
 er2 opt freq High 2\\0,1\C,5.8299417497,2.8011964763,-0.8367531534\C,5
 .645693883,1.3200546254,-1.1437610076\H,6.4591418703,3.2815016669,-1.5
 859953497\H,4.871919881,3.3217598437,-0.8176444321\H,6.3031397323,2.94
 19540344,0.1371127625\C,4.8000556228,0.5765303772,-0.0995415112\H,5.18
 06920861,1.2025942019,-2.1266299454\H,6.6227356653,0.8343618808,-1.207
 0620779\C,4.7989323462,-0.9336855399,-0.3925999196\H,5.2832159818,0.71
 51825626,0.873294366\H,4.4543843752,-1.1065193131,-1.4157781968\H,5.84
 0235497,-1.2648299076,-0.3712524514\C,3.9917710308,-1.814034498,0.5813
 21472\C,4.5617531478,-3.2431149647,0.6047990457\H,4.1141312383,-1.3992
 945835,1.5872087362\H,4.5025626618,-3.6672773393,-0.4018997937\H,5.625
 0538512,-3.181912986,0.8485022439\C,3.8671659715,-4.168644847,1.596142
 7675\H,4.3430993834,-5.1490675919,1.6135396283\H,3.9089775876,-3.75829
 7826,2.6070454111\H,2.8164919066,-4.3081541883,1.3409198\C,2.504070194
 4,-1.8337662767,0.280763202\C,1.5719712452,-1.4349300825,1.2307508116\
 C,2.0313038014,-2.2513677457,-0.9618374785\C,0.2143421442,-1.430171984
 5,0.9486954707\H,1.9137922319,-1.0874747964,2.1970087062\C,0.678410996
 8,-2.2400567383,-1.2513563692\H,2.7303871168,-2.5598605922,-1.72928940
 84\C,-0.2524187781,-1.8397069883,-0.2958593009\H,-0.4939478605,-1.0766
 686835,1.6882445648\H,0.343919666,-2.5173402134,-2.2433305779\C,3.4058
 69638,1.1533563724,0.0110946991\C,2.9745890133,1.7538576171,1.18614331
 94\C,2.4984133049,1.0388409822,-1.0400743833\C,1.6633626332,2.18731022
 37,1.3250110534\H,3.6612624454,1.8522790358,2.0180032103\C,1.184714343
 8,1.4432490051,-0.9007276887\H,2.803406868,0.5615469376,-1.9624740098\
 C,0.7500141161,2.0242453501,0.2908498655\H,1.335181144,2.611139905,2.2
 665049592\H,0.4708223595,1.2587757253,-1.6949764528\C,-0.6988889581,2.
 3434995844,0.5036160278\H,-1.3541560112,1.6079936523,0.0458149168\H,-0
 .9444890025,2.3529424858,1.5624139049\C,-1.7207130885,-1.7720271891,-0
 .5943384468\H,-2.1929714867,-1.0510541814,0.0721954214\H,-1.9091924849
 ,-1.4644642638,-1.6206925162\C,-2.6443296454,3.7710821176,0.1576404795
 \H,-2.9777411939,4.7382791831,-0.213188501\H,-3.1000341057,2.948121018
 9,-0.3976910503\H,-2.8685307798,3.6615127856,1.2159781139\C,-0.8371911
 409,3.8598793309,-1.4640051994\H,0.2413828098,3.8902441113,-1.58755651
 83\H,-1.2495258661,3.014943746,-2.0141511905\H,-1.2773360063,4.7939562
 776,-1.8052744914\C,-0.515988888,4.7817144798,0.7648207281\H,-0.800284
 48,4.6636626182,1.8074510263\H,0.5631109194,4.7086494441,0.6580650736\
 H,-0.8647425531,5.7407255278,0.3890258199\C,-3.9247288802,-2.808909815
 9,-0.6733595275\H,-4.4676400954,-3.7457651265,-0.5664593036\H,-4.29410
 88738,-2.0599035188,0.0285231332\H,-4.0222435018,-2.4068115916,-1.6805
 044461\C,-1.9933617573,-4.1097517598,-1.3525413823\H,-2.0998965506,-3.
 7270430263,-2.3645573532\H,-0.951896127,-4.3349427513,-1.1432208126\H,
 -2.5972626569,-5.0055865282,-1.2314173894\C,-2.3318974736,-3.577801946
 4,0.9964798261\H,-1.2805676806,-3.7638379586,1.197118878\H,-2.74130550
 48,-2.831265124,1.6825970406\H,-2.8959160152,-4.5043092899,1.081894753
 9\N,-1.1572728316,3.6983474379,-0.0196068486\N,-2.4770321628,-3.080498
 9333,-0.4011766171\C,-3.9335515878,0.4681123753,0.2337450792\O,-3.6515
 149987,1.0020086436,-0.9242965543\O,-5.0111512111,-0.1267521583,0.4376
 293144\O,-2.9973140334,0.5293471355,1.1501431808\O,-3.7539328363,-1.40
 71333474,2.8106686457\H,-4.671910884,-1.3839199347,2.5282584138\H,-3.4
 053749105,-0.6486638467,2.2774886702\O,-2.642688873,2.3620872753,3.021
 300325\H,-2.8696916539,1.6609764138,2.3579607301\H,-3.07935171,2.09159
 40699,3.8274194208\O,-1.5944486983,0.9008855265,-2.5477583363\H,-2.096
 8889098,0.5604811245,-3.291918222\H,-2.2893102144,0.9438936083,-1.8384
 519467\O,-4.1830503728,-0.5424166,-2.9996994109\H,-5.0708076436,-0.447
 0240673,-3.340662555\H,-4.154955483,0.0387598486,-2.1908908919\\Versio
 n=ES64L-G16RevA.03\State=1-A\HF=-1734.4572375\RMSD=4.363e-09\RMSF=3.53
 0e-07\Dipole=3.6836334,-0.2668146,-1.1764106\Quadrupole=-26.6389872,37
 .7846151,-11.1456279,6.8058561,10.2565282,6.4186331\PG=C01 [X(C28H52N2
 O7)]\\@


 WE'RE IN THE POSITION OF A VISITOR FROM ANOTHER
 DIMENSION WHO COMES TO EARTH AND SEES A CHESS MATCH.
 ASSUMING HE KNOWS IT'S A GAME, HE'S GOT TWO PROBLEMS:
 FIRST, FIGURE OUT THE RULES, AND SECOND, FIGURE OUT HOW TO WIN.
 NINETY PERCENT OF SCIENCE (INCLUDING VIRTUALLY ALL OF CHEMISRY)
 IS IN THAT SECOND CATEGORY.  THEY'RE TRYING TO APPLY
 THE LAWS THAT ARE ALREADY KNOWN.

                     -- SHELDON GLASHOW, 1979
 Job cpu time:      26 days  5 hours 35 minutes 58.5 seconds.
 Elapsed time:       1 days  7 hours 50 minutes  6.5 seconds.
 File lengths (MBytes):  RWF=  43639 Int=      0 D2E=      0 Chk=    172 Scr=      1
 Normal termination of Gaussian 16 at Fri Mar 15 21:07:31 2024.
