 Entering Gaussian System, Link 0=g16
 Input=8water.gjf
 Output=8water.log
 Initial command:
 /packages/apps/gaussian/g16/g16/l1.exe "/scratch/mdturne9/3-5-methyl/geo/Gau-1185995.inp" -scrdir="/scratch/mdturne9/3-5-methyl/geo/"
 Entering Link 1 = /packages/apps/gaussian/g16/g16/l1.exe PID=   1185996.
  
 Copyright (c) 1988,1990,1992,1993,1995,1998,2003,2009,2016,
            Gaussian, Inc.  All Rights Reserved.
  
 This is part of the Gaussian(R) 16 program.  It is based on
 the Gaussian(R) 09 system (copyright 2009, Gaussian, Inc.),
 the Gaussian(R) 03 system (copyright 2003, Gaussian, Inc.),
 the Gaussian(R) 98 system (copyright 1998, Gaussian, Inc.),
 the Gaussian(R) 94 system (copyright 1995, Gaussian, Inc.),
 the Gaussian 92(TM) system (copyright 1992, Gaussian, Inc.),
 the Gaussian 90(TM) system (copyright 1990, Gaussian, Inc.),
 the Gaussian 88(TM) system (copyright 1988, Gaussian, Inc.),
 the Gaussian 86(TM) system (copyright 1986, Carnegie Mellon
 University), and the Gaussian 82(TM) system (copyright 1983,
 Carnegie Mellon University). Gaussian is a federally registered
 trademark of Gaussian, Inc.
  
 This software contains proprietary and confidential information,
 including trade secrets, belonging to Gaussian, Inc.
  
 This software is provided under written license and may be
 used, copied, transmitted, or stored only in accord with that
 written license.
  
 The following legend is applicable only to US Government
 contracts under FAR:
  
                    RESTRICTED RIGHTS LEGEND
  
 Use, reproduction and disclosure by the US Government is
 subject to restrictions as set forth in subparagraphs (a)
 and (c) of the Commercial Computer Software - Restricted
 Rights clause in FAR 52.227-19.
  
 Gaussian, Inc.
 340 Quinnipiac St., Bldg. 40, Wallingford CT 06492
  
  
 ---------------------------------------------------------------
 Warning -- This program may not be used in any manner that
 competes with the business of Gaussian, Inc. or will provide
 assistance to any competitor of Gaussian, Inc.  The licensee
 of this program is prohibited from giving any competitor of
 Gaussian, Inc. access to this program.  By using this program,
 the user acknowledges that Gaussian, Inc. is engaged in the
 business of creating and licensing software in the field of
 computational chemistry and represents and warrants to the
 licensee that it is not a competitor of Gaussian, Inc. and that
 it will not use this program in any manner prohibited above.
 ---------------------------------------------------------------
  

 Cite this work as:
 Gaussian 16, Revision A.03,
 M. J. Frisch, G. W. Trucks, H. B. Schlegel, G. E. Scuseria, 
 M. A. Robb, J. R. Cheeseman, G. Scalmani, V. Barone, 
 G. A. Petersson, H. Nakatsuji, X. Li, M. Caricato, A. V. Marenich, 
 J. Bloino, B. G. Janesko, R. Gomperts, B. Mennucci, H. P. Hratchian, 
 J. V. Ortiz, A. F. Izmaylov, J. L. Sonnenberg, D. Williams-Young, 
 F. Ding, F. Lipparini, F. Egidi, J. Goings, B. Peng, A. Petrone, 
 T. Henderson, D. Ranasinghe, V. G. Zakrzewski, J. Gao, N. Rega, 
 G. Zheng, W. Liang, M. Hada, M. Ehara, K. Toyota, R. Fukuda, 
 J. Hasegawa, M. Ishida, T. Nakajima, Y. Honda, O. Kitao, H. Nakai, 
 T. Vreven, K. Throssell, J. A. Montgomery, Jr., J. E. Peralta, 
 F. Ogliaro, M. J. Bearpark, J. J. Heyd, E. N. Brothers, K. N. Kudin, 
 V. N. Staroverov, T. A. Keith, R. Kobayashi, J. Normand, 
 K. Raghavachari, A. P. Rendell, J. C. Burant, S. S. Iyengar, 
 J. Tomasi, M. Cossi, J. M. Millam, M. Klene, C. Adamo, R. Cammi, 
 J. W. Ochterski, R. L. Martin, K. Morokuma, O. Farkas, 
 J. B. Foresman, and D. J. Fox, Gaussian, Inc., Wallingford CT, 2016.
 
 ******************************************
 Gaussian 16:  ES64L-G16RevA.03 25-Dec-2016
                14-Mar-2024 
 ******************************************
 %nprocshared=20
 Will use up to   20 processors via shared memory.
 %mem=8GB
 %chk=8water.chk
 -----------------------------------------------------
 #p opt=calcfc wb97xd/6-311+g(2d,2p) geom=connectivity
 -----------------------------------------------------
 1/10=4,18=20,19=15,26=3,38=1,57=2/1,3;
 2/9=110,12=2,17=6,18=5,40=1/2;
 3/5=4,6=6,7=212,11=2,25=1,30=1,71=2,74=-58,140=1/1,2,3;
 4//1;
 5/5=2,38=5/2;
 8/6=4,10=90,11=11/1;
 11/6=1,8=1,9=11,15=111,16=1/1,2,10;
 10/6=1,13=1/2;
 6/7=2,8=2,9=2,10=2,28=1/1;
 7/10=1,18=20,25=1/1,2,3,16;
 1/10=4,18=20,19=15,26=3/3(2);
 2/9=110/2;
 99//99;
 2/9=110/2;
 3/5=4,6=6,7=212,11=2,25=1,30=1,71=1,74=-58/1,2,3;
 4/5=5,16=3,69=1/1;
 5/5=2,38=5/2;
 7//1,2,3,16;
 1/18=20,19=15,26=3/3(-5);
 2/9=110/2;
 6/7=2,8=2,9=2,10=2,19=2,28=1/1;
 99/9=1/99;
 Leave Link    1 at Thu Mar 14 13:19:11 2024, MaxMem=  1073741824 cpu:               3.1 elap:               0.5
 (Enter /packages/apps/gaussian/g16/g16/l101.exe)
 ----------------------
 8w carbonate ropt freq
 ----------------------
 Symbolic Z-matrix:
 Charge =  0 Multiplicity = 1
 C                     5.13361  -4.38302   0.78483 
 C                     5.54013  -2.97537   1.20374 
 H                     5.48032  -5.12063   1.50824 
 H                     4.0501   -4.47491   0.70448 
 H                     5.56154  -4.64026  -0.18625 
 C                     5.13476  -1.8874    0.19561 
 H                     5.10175  -2.73962   2.1774 
 H                     6.62376  -2.93313   1.33736 
 C                     5.7168   -0.52989   0.62448 
 H                     5.59674  -2.14437  -0.76346 
 H                     5.33352  -0.25888   1.61232 
 H                     6.79306  -0.67265   0.75023 
 C                     5.50049   0.64506  -0.34982 
 C                     6.5903    1.71143  -0.15923 
 H                     5.60244   0.25703  -1.36866 
 H                     6.5621    2.0793    0.8703 
 H                     7.56298   1.22939  -0.28148 
 C                     6.47733   2.88105  -1.12941 
 H                     7.29748   3.58523  -0.99047 
 H                     6.50698   2.53252  -2.16372 
 H                     5.54122   3.42251  -0.99016 
 C                     4.10857   1.23185  -0.22681 
 C                     3.18289   1.09728  -1.25457 
 C                     3.69852   1.86002   0.946 
 C                     1.86839   1.49986  -1.09581 
 H                     3.47798   0.60448  -2.17149 
 C                     2.3921    2.29233   1.10164 
 H                     4.39435   1.98051   1.76686 
 C                     1.45604   2.10285   0.0893 
 H                     1.14007   1.29704  -1.87177 
 H                     2.08212   2.73394   2.04111 
 C                     3.63568  -1.87837  -0.02436 
 C                     3.09948  -2.21506  -1.26114 
 C                     2.75486  -1.53006   0.99799 
 C                     1.73043  -2.17862  -1.48283 
 H                     3.76408  -2.4806   -2.0741 
 C                     1.3884   -1.49986   0.78567 
 H                     3.14094  -1.24958   1.96951 
 C                     0.85641  -1.82727  -0.46143 
 H                     1.34472  -2.39409  -2.47179 
 H                     0.72119  -1.20764   1.58834 
 C                    -0.6226   -1.72733  -0.68512 
 H                    -1.0679   -1.00912   0.00282 
 H                    -0.85143  -1.38577  -1.69309 
 C                     0.00666   2.39758   0.32555 
 H                    -0.62866   1.63622  -0.1154 
 H                    -0.22034   2.41383   1.38868 
 C                    -2.85017  -2.68327  -0.44464 
 H                    -3.43342  -3.59876  -0.41914 
 H                    -3.03185  -2.11092   0.45952 
 H                    -3.11098  -2.10004  -1.32431 
 C                    -1.0221   -3.70621   0.77991 
 H                     0.022    -4.00132   0.73383 
 H                    -1.20114  -3.0169    1.606 
 H                    -1.65598  -4.58376   0.88473 
 C                    -1.1484   -3.94384  -1.63603 
 H                    -1.47186  -3.45621  -2.55207 
 H                    -0.08864  -4.178    -1.68488 
 H                    -1.72196  -4.85435  -1.48246 
 C                    -1.99611   3.73251  -0.0534 
 H                    -2.36699   4.69907  -0.38719 
 H                    -2.41091   2.92963  -0.66108 
 H                    -2.23789   3.56207   0.99441 
 C                     0.07397   4.84052   0.58678 
 H                    -0.2376    4.72093   1.62152 
 H                     1.15761   4.80133   0.51171 
 H                    -0.29398   5.78459   0.19218 
 C                    -0.17232   3.89894  -1.6474 
 H                     0.90515   3.9781   -1.75707 
 H                    -0.54281   3.02957  -2.18985 
 H                    -0.65229   4.80849  -2.00078 
 N                    -1.39352  -3.02812  -0.49519 
 N                    -0.50514   3.72855  -0.2072 
 C                    -3.21473   0.52953   0.19211 
 O                    -2.13182   0.4845    0.88693 
 O                    -4.34892   0.32454   0.75128 
 O                    -3.14395   0.77782  -1.06378 
 O                    -1.07089   0.89343  -2.63633 
 H                    -1.48611   0.80777  -3.49424 
 H                    -1.8287    0.83145  -1.98711 
 O                    -5.65149  -2.01612  -0.13139 
 H                    -5.24026  -1.22714   0.26318 
 H                    -6.6012   -1.82511  -0.09244 
 O                    -1.80129  -1.39971   2.76952 
 H                    -2.51228  -1.20803   3.38991 
 H                    -1.92036  -0.68099   2.11292 
 O                    -6.4331    1.1524   -0.92233 
 H                    -6.1124    0.78893  -1.75622 
 H                    -5.68998   0.97863  -0.31012 
 O                    -4.80206  -0.75414  -2.6077 
 H                    -5.21358  -1.31295  -1.93201 
 H                    -4.21942  -0.16529  -2.08918 
 O                    -2.05419   2.36244   2.85417 
 H                    -2.70939   2.07519   3.49677 
 H                    -2.09859   1.64247   2.19191 
 O                    -4.1074    0.27397   3.4536 
 H                    -4.99093   0.17688   3.80487 
 H                    -4.21676   0.28959   2.47115 
 O                    -8.20454  -0.79088  -0.18517 
 H                    -7.66848  -0.01221  -0.44971 
 H                    -8.65747  -0.53399   0.61611 
 
 Add virtual bond connecting atoms H80        and O77        Dist= 3.04D+00.
 Add virtual bond connecting atoms H86        and O75        Dist= 3.22D+00.
 Add virtual bond connecting atoms H98        and O76        Dist= 3.26D+00.
 Add virtual bond connecting atoms H95        and O75        Dist= 3.30D+00.
 Add virtual bond connecting atoms H92        and O77        Dist= 3.33D+00.
 Add virtual bond connecting atoms H100       and O87        Dist= 3.33D+00.
 Add virtual bond connecting atoms H89        and O76        Dist= 3.46D+00.
 Add virtual bond connecting atoms O81        and H91        Dist= 3.75D+00.
 Add virtual bond connecting atoms H82        and O76        Dist= 3.51D+00.
 Add virtual bond connecting atoms H83        and O99        Dist= 3.61D+00.
 Add virtual bond connecting atoms O75        and H43        Dist= 3.85D+00.
 Add virtual bond connecting atoms O75        and H46        Dist= 4.05D+00.
 Add virtual bond connecting atoms O84        and H54        Dist= 3.93D+00.
 Add virtual bond connecting atoms H95        and H47        Dist= 4.13D+00.
 ITRead=  0  0  0  0  0  0  0  0  0  0  0  0  0  0  0  0  0  0  0  0
 ITRead=  0  0  0  0  0  0  0  0  0  0  0  0  0  0  0  0  0  0  0  0
 ITRead=  0  0  0  0  0  0  0  0  0  0  0  0  0  0  0  0  0  0  0  0
 ITRead=  0  0  0  0  0  0  0  0  0  0  0  0  0  0  0  0  0  0  0  0
 ITRead=  0  0  0  0  0  0  0  0  0  0  0  0  0  0  0  0  0  0  0  0
 ITRead=  0
 MicOpt= -1 -1 -1 -1 -1 -1 -1 -1 -1 -1 -1 -1 -1 -1 -1 -1 -1 -1 -1 -1
 MicOpt= -1 -1 -1 -1 -1 -1 -1 -1 -1 -1 -1 -1 -1 -1 -1 -1 -1 -1 -1 -1
 MicOpt= -1 -1 -1 -1 -1 -1 -1 -1 -1 -1 -1 -1 -1 -1 -1 -1 -1 -1 -1 -1
 MicOpt= -1 -1 -1 -1 -1 -1 -1 -1 -1 -1 -1 -1 -1 -1 -1 -1 -1 -1 -1 -1
 MicOpt= -1 -1 -1 -1 -1 -1 -1 -1 -1 -1 -1 -1 -1 -1 -1 -1 -1 -1 -1 -1
 MicOpt= -1
 NAtoms=    101 NQM=      101 NQMF=       0 NMMI=      0 NMMIF=      0
                NMic=       0 NMicF=      0.
                    Isotopes and Nuclear Properties:
 (Nuclear quadrupole moments (NQMom) in fm**2, nuclear magnetic moments (NMagM)
  in nuclear magnetons)

  Atom         1           2           3           4           5           6           7           8           9          10
 IAtWgt=          12          12           1           1           1          12           1           1          12           1
 AtmWgt=  12.0000000  12.0000000   1.0078250   1.0078250   1.0078250  12.0000000   1.0078250   1.0078250  12.0000000   1.0078250
 NucSpn=           0           0           1           1           1           0           1           1           0           1
 AtZEff=  -0.0000000  -0.0000000  -0.0000000  -0.0000000  -0.0000000  -0.0000000  -0.0000000  -0.0000000  -0.0000000  -0.0000000
 NQMom=    0.0000000   0.0000000   0.0000000   0.0000000   0.0000000   0.0000000   0.0000000   0.0000000   0.0000000   0.0000000
 NMagM=    0.0000000   0.0000000   2.7928460   2.7928460   2.7928460   0.0000000   2.7928460   2.7928460   0.0000000   2.7928460
 AtZNuc=   6.0000000   6.0000000   1.0000000   1.0000000   1.0000000   6.0000000   1.0000000   1.0000000   6.0000000   1.0000000

  Atom        11          12          13          14          15          16          17          18          19          20
 IAtWgt=           1           1          12          12           1           1           1          12           1           1
 AtmWgt=   1.0078250   1.0078250  12.0000000  12.0000000   1.0078250   1.0078250   1.0078250  12.0000000   1.0078250   1.0078250
 NucSpn=           1           1           0           0           1           1           1           0           1           1
 AtZEff=  -0.0000000  -0.0000000  -0.0000000  -0.0000000  -0.0000000  -0.0000000  -0.0000000  -0.0000000  -0.0000000  -0.0000000
 NQMom=    0.0000000   0.0000000   0.0000000   0.0000000   0.0000000   0.0000000   0.0000000   0.0000000   0.0000000   0.0000000
 NMagM=    2.7928460   2.7928460   0.0000000   0.0000000   2.7928460   2.7928460   2.7928460   0.0000000   2.7928460   2.7928460
 AtZNuc=   1.0000000   1.0000000   6.0000000   6.0000000   1.0000000   1.0000000   1.0000000   6.0000000   1.0000000   1.0000000

  Atom        21          22          23          24          25          26          27          28          29          30
 IAtWgt=           1          12          12          12          12           1          12           1          12           1
 AtmWgt=   1.0078250  12.0000000  12.0000000  12.0000000  12.0000000   1.0078250  12.0000000   1.0078250  12.0000000   1.0078250
 NucSpn=           1           0           0           0           0           1           0           1           0           1
 AtZEff=  -0.0000000  -0.0000000  -0.0000000  -0.0000000  -0.0000000  -0.0000000  -0.0000000  -0.0000000  -0.0000000  -0.0000000
 NQMom=    0.0000000   0.0000000   0.0000000   0.0000000   0.0000000   0.0000000   0.0000000   0.0000000   0.0000000   0.0000000
 NMagM=    2.7928460   0.0000000   0.0000000   0.0000000   0.0000000   2.7928460   0.0000000   2.7928460   0.0000000   2.7928460
 AtZNuc=   1.0000000   6.0000000   6.0000000   6.0000000   6.0000000   1.0000000   6.0000000   1.0000000   6.0000000   1.0000000

  Atom        31          32          33          34          35          36          37          38          39          40
 IAtWgt=           1          12          12          12          12           1          12           1          12           1
 AtmWgt=   1.0078250  12.0000000  12.0000000  12.0000000  12.0000000   1.0078250  12.0000000   1.0078250  12.0000000   1.0078250
 NucSpn=           1           0           0           0           0           1           0           1           0           1
 AtZEff=  -0.0000000  -0.0000000  -0.0000000  -0.0000000  -0.0000000  -0.0000000  -0.0000000  -0.0000000  -0.0000000  -0.0000000
 NQMom=    0.0000000   0.0000000   0.0000000   0.0000000   0.0000000   0.0000000   0.0000000   0.0000000   0.0000000   0.0000000
 NMagM=    2.7928460   0.0000000   0.0000000   0.0000000   0.0000000   2.7928460   0.0000000   2.7928460   0.0000000   2.7928460
 AtZNuc=   1.0000000   6.0000000   6.0000000   6.0000000   6.0000000   1.0000000   6.0000000   1.0000000   6.0000000   1.0000000

  Atom        41          42          43          44          45          46          47          48          49          50
 IAtWgt=           1          12           1           1          12           1           1          12           1           1
 AtmWgt=   1.0078250  12.0000000   1.0078250   1.0078250  12.0000000   1.0078250   1.0078250  12.0000000   1.0078250   1.0078250
 NucSpn=           1           0           1           1           0           1           1           0           1           1
 AtZEff=  -0.0000000  -0.0000000  -0.0000000  -0.0000000  -0.0000000  -0.0000000  -0.0000000  -0.0000000  -0.0000000  -0.0000000
 NQMom=    0.0000000   0.0000000   0.0000000   0.0000000   0.0000000   0.0000000   0.0000000   0.0000000   0.0000000   0.0000000
 NMagM=    2.7928460   0.0000000   2.7928460   2.7928460   0.0000000   2.7928460   2.7928460   0.0000000   2.7928460   2.7928460
 AtZNuc=   1.0000000   6.0000000   1.0000000   1.0000000   6.0000000   1.0000000   1.0000000   6.0000000   1.0000000   1.0000000

  Atom        51          52          53          54          55          56          57          58          59          60
 IAtWgt=           1          12           1           1           1          12           1           1           1          12
 AtmWgt=   1.0078250  12.0000000   1.0078250   1.0078250   1.0078250  12.0000000   1.0078250   1.0078250   1.0078250  12.0000000
 NucSpn=           1           0           1           1           1           0           1           1           1           0
 AtZEff=  -0.0000000  -0.0000000  -0.0000000  -0.0000000  -0.0000000  -0.0000000  -0.0000000  -0.0000000  -0.0000000  -0.0000000
 NQMom=    0.0000000   0.0000000   0.0000000   0.0000000   0.0000000   0.0000000   0.0000000   0.0000000   0.0000000   0.0000000
 NMagM=    2.7928460   0.0000000   2.7928460   2.7928460   2.7928460   0.0000000   2.7928460   2.7928460   2.7928460   0.0000000
 AtZNuc=   1.0000000   6.0000000   1.0000000   1.0000000   1.0000000   6.0000000   1.0000000   1.0000000   1.0000000   6.0000000

  Atom        61          62          63          64          65          66          67          68          69          70
 IAtWgt=           1           1           1          12           1           1           1          12           1           1
 AtmWgt=   1.0078250   1.0078250   1.0078250  12.0000000   1.0078250   1.0078250   1.0078250  12.0000000   1.0078250   1.0078250
 NucSpn=           1           1           1           0           1           1           1           0           1           1
 AtZEff=  -0.0000000  -0.0000000  -0.0000000  -0.0000000  -0.0000000  -0.0000000  -0.0000000  -0.0000000  -0.0000000  -0.0000000
 NQMom=    0.0000000   0.0000000   0.0000000   0.0000000   0.0000000   0.0000000   0.0000000   0.0000000   0.0000000   0.0000000
 NMagM=    2.7928460   2.7928460   2.7928460   0.0000000   2.7928460   2.7928460   2.7928460   0.0000000   2.7928460   2.7928460
 AtZNuc=   1.0000000   1.0000000   1.0000000   6.0000000   1.0000000   1.0000000   1.0000000   6.0000000   1.0000000   1.0000000

  Atom        71          72          73          74          75          76          77          78          79          80
 IAtWgt=           1          14          14          12          16          16          16          16           1           1
 AtmWgt=   1.0078250  14.0030740  14.0030740  12.0000000  15.9949146  15.9949146  15.9949146  15.9949146   1.0078250   1.0078250
 NucSpn=           1           2           2           0           0           0           0           0           1           1
 AtZEff=  -0.0000000  -0.0000000  -0.0000000  -0.0000000  -0.0000000  -0.0000000  -0.0000000  -0.0000000  -0.0000000  -0.0000000
 NQMom=    0.0000000   2.0440000   2.0440000   0.0000000   0.0000000   0.0000000   0.0000000   0.0000000   0.0000000   0.0000000
 NMagM=    2.7928460   0.4037610   0.4037610   0.0000000   0.0000000   0.0000000   0.0000000   0.0000000   2.7928460   2.7928460
 AtZNuc=   1.0000000   7.0000000   7.0000000   6.0000000   8.0000000   8.0000000   8.0000000   8.0000000   1.0000000   1.0000000

  Atom        81          82          83          84          85          86          87          88          89          90
 IAtWgt=          16           1           1          16           1           1          16           1           1          16
 AtmWgt=  15.9949146   1.0078250   1.0078250  15.9949146   1.0078250   1.0078250  15.9949146   1.0078250   1.0078250  15.9949146
 NucSpn=           0           1           1           0           1           1           0           1           1           0
 AtZEff=  -0.0000000  -0.0000000  -0.0000000  -0.0000000  -0.0000000  -0.0000000  -0.0000000  -0.0000000  -0.0000000  -0.0000000
 NQMom=    0.0000000   0.0000000   0.0000000   0.0000000   0.0000000   0.0000000   0.0000000   0.0000000   0.0000000   0.0000000
 NMagM=    0.0000000   2.7928460   2.7928460   0.0000000   2.7928460   2.7928460   0.0000000   2.7928460   2.7928460   0.0000000
 AtZNuc=   8.0000000   1.0000000   1.0000000   8.0000000   1.0000000   1.0000000   8.0000000   1.0000000   1.0000000   8.0000000

  Atom        91          92          93          94          95          96          97          98          99         100
 IAtWgt=           1           1          16           1           1          16           1           1          16           1
 AtmWgt=   1.0078250   1.0078250  15.9949146   1.0078250   1.0078250  15.9949146   1.0078250   1.0078250  15.9949146   1.0078250
 NucSpn=           1           1           0           1           1           0           1           1           0           1
 AtZEff=  -0.0000000  -0.0000000  -0.0000000  -0.0000000  -0.0000000  -0.0000000  -0.0000000  -0.0000000  -0.0000000  -0.0000000
 NQMom=    0.0000000   0.0000000   0.0000000   0.0000000   0.0000000   0.0000000   0.0000000   0.0000000   0.0000000   0.0000000
 NMagM=    2.7928460   2.7928460   0.0000000   2.7928460   2.7928460   0.0000000   2.7928460   2.7928460   0.0000000   2.7928460
 AtZNuc=   1.0000000   1.0000000   8.0000000   1.0000000   1.0000000   8.0000000   1.0000000   1.0000000   8.0000000   1.0000000

  Atom       101
 IAtWgt=           1
 AtmWgt=   1.0078250
 NucSpn=           1
 AtZEff=  -0.0000000
 NQMom=    0.0000000
 NMagM=    2.7928460
 AtZNuc=   1.0000000
 Leave Link  101 at Thu Mar 14 13:19:12 2024, MaxMem=  1073741824 cpu:               5.4 elap:               0.4
 (Enter /packages/apps/gaussian/g16/g16/l103.exe)

 GradGradGradGradGradGradGradGradGradGradGradGradGradGradGradGradGradGrad
 Berny optimization.
 Initialization pass.
                           ----------------------------
                           !    Initial Parameters    !
                           ! (Angstroms and Degrees)  !
 --------------------------                            --------------------------
 ! Name  Definition              Value          Derivative Info.                !
 --------------------------------------------------------------------------------
 ! R1    R(1,2)                  1.5239         calculate D2E/DX2 analytically  !
 ! R2    R(1,3)                  1.0898         calculate D2E/DX2 analytically  !
 ! R3    R(1,4)                  1.0904         calculate D2E/DX2 analytically  !
 ! R4    R(1,5)                  1.0919         calculate D2E/DX2 analytically  !
 ! R5    R(2,6)                  1.5376         calculate D2E/DX2 analytically  !
 ! R6    R(2,7)                  1.0935         calculate D2E/DX2 analytically  !
 ! R7    R(2,8)                  1.0927         calculate D2E/DX2 analytically  !
 ! R8    R(6,9)                  1.538          calculate D2E/DX2 analytically  !
 ! R9    R(6,10)                 1.0951         calculate D2E/DX2 analytically  !
 ! R10   R(6,32)                 1.5152         calculate D2E/DX2 analytically  !
 ! R11   R(9,11)                 1.0937         calculate D2E/DX2 analytically  !
 ! R12   R(9,12)                 1.0929         calculate D2E/DX2 analytically  !
 ! R13   R(9,13)                 1.5416         calculate D2E/DX2 analytically  !
 ! R14   R(13,14)                1.5366         calculate D2E/DX2 analytically  !
 ! R15   R(13,15)                1.095          calculate D2E/DX2 analytically  !
 ! R16   R(13,22)                1.5156         calculate D2E/DX2 analytically  !
 ! R17   R(14,16)                1.0936         calculate D2E/DX2 analytically  !
 ! R18   R(14,17)                1.0924         calculate D2E/DX2 analytically  !
 ! R19   R(14,18)                1.5238         calculate D2E/DX2 analytically  !
 ! R20   R(18,19)                1.0899         calculate D2E/DX2 analytically  !
 ! R21   R(18,20)                1.0919         calculate D2E/DX2 analytically  !
 ! R22   R(18,21)                1.0904         calculate D2E/DX2 analytically  !
 ! R23   R(22,23)                1.3897         calculate D2E/DX2 analytically  !
 ! R24   R(22,24)                1.3922         calculate D2E/DX2 analytically  !
 ! R25   R(23,25)                1.3839         calculate D2E/DX2 analytically  !
 ! R26   R(23,26)                1.082          calculate D2E/DX2 analytically  !
 ! R27   R(24,27)                1.3849         calculate D2E/DX2 analytically  !
 ! R28   R(24,28)                1.0828         calculate D2E/DX2 analytically  !
 ! R29   R(25,29)                1.3922         calculate D2E/DX2 analytically  !
 ! R30   R(25,30)                1.0834         calculate D2E/DX2 analytically  !
 ! R31   R(27,29)                1.3917         calculate D2E/DX2 analytically  !
 ! R32   R(27,31)                1.0834         calculate D2E/DX2 analytically  !
 ! R33   R(29,45)                1.4978         calculate D2E/DX2 analytically  !
 ! R34   R(32,33)                1.3894         calculate D2E/DX2 analytically  !
 ! R35   R(32,34)                1.3937         calculate D2E/DX2 analytically  !
 ! R36   R(33,35)                1.3874         calculate D2E/DX2 analytically  !
 ! R37   R(33,36)                1.0831         calculate D2E/DX2 analytically  !
 ! R38   R(34,37)                1.3832         calculate D2E/DX2 analytically  !
 ! R39   R(34,38)                1.0824         calculate D2E/DX2 analytically  !
 ! R40   R(35,39)                1.3895         calculate D2E/DX2 analytically  !
 ! R41   R(35,40)                1.0832         calculate D2E/DX2 analytically  !
 ! R42   R(37,39)                1.3948         calculate D2E/DX2 analytically  !
 ! R43   R(37,41)                1.0839         calculate D2E/DX2 analytically  !
 ! R44   R(39,42)                1.4992         calculate D2E/DX2 analytically  !
 ! R45   R(42,43)                1.0897         calculate D2E/DX2 analytically  !
 ! R46   R(42,44)                1.0886         calculate D2E/DX2 analytically  !
 ! R47   R(42,72)                1.5239         calculate D2E/DX2 analytically  !
 ! R48   R(43,75)                2.0358         calculate D2E/DX2 analytically  !
 ! R49   R(45,46)                1.0852         calculate D2E/DX2 analytically  !
 ! R50   R(45,47)                1.0872         calculate D2E/DX2 analytically  !
 ! R51   R(45,73)                1.5223         calculate D2E/DX2 analytically  !
 ! R52   R(46,75)                2.1426         calculate D2E/DX2 analytically  !
 ! R53   R(47,95)                2.1836         calculate D2E/DX2 analytically  !
 ! R54   R(48,49)                1.0858         calculate D2E/DX2 analytically  !
 ! R55   R(48,50)                1.0854         calculate D2E/DX2 analytically  !
 ! R56   R(48,51)                1.0872         calculate D2E/DX2 analytically  !
 ! R57   R(48,72)                1.4978         calculate D2E/DX2 analytically  !
 ! R58   R(52,53)                1.086          calculate D2E/DX2 analytically  !
 ! R59   R(52,54)                1.0907         calculate D2E/DX2 analytically  !
 ! R60   R(52,55)                1.0876         calculate D2E/DX2 analytically  !
 ! R61   R(52,72)                1.4912         calculate D2E/DX2 analytically  !
 ! R62   R(54,84)                2.0807         calculate D2E/DX2 analytically  !
 ! R63   R(56,57)                1.087          calculate D2E/DX2 analytically  !
 ! R64   R(56,58)                1.0864         calculate D2E/DX2 analytically  !
 ! R65   R(56,59)                1.087          calculate D2E/DX2 analytically  !
 ! R66   R(56,72)                1.4833         calculate D2E/DX2 analytically  !
 ! R67   R(60,61)                1.0878         calculate D2E/DX2 analytically  !
 ! R68   R(60,62)                1.089          calculate D2E/DX2 analytically  !
 ! R69   R(60,63)                1.0888         calculate D2E/DX2 analytically  !
 ! R70   R(60,73)                1.4989         calculate D2E/DX2 analytically  !
 ! R71   R(64,65)                1.0872         calculate D2E/DX2 analytically  !
 ! R72   R(64,66)                1.0869         calculate D2E/DX2 analytically  !
 ! R73   R(64,67)                1.0874         calculate D2E/DX2 analytically  !
 ! R74   R(64,73)                1.484          calculate D2E/DX2 analytically  !
 ! R75   R(68,69)                1.0859         calculate D2E/DX2 analytically  !
 ! R76   R(68,70)                1.0896         calculate D2E/DX2 analytically  !
 ! R77   R(68,71)                1.0874         calculate D2E/DX2 analytically  !
 ! R78   R(68,73)                1.4879         calculate D2E/DX2 analytically  !
 ! R79   R(74,75)                1.2874         calculate D2E/DX2 analytically  !
 ! R80   R(74,76)                1.281          calculate D2E/DX2 analytically  !
 ! R81   R(74,77)                1.2822         calculate D2E/DX2 analytically  !
 ! R82   R(75,86)                1.7047         calculate D2E/DX2 analytically  !
 ! R83   R(75,95)                1.745          calculate D2E/DX2 analytically  !
 ! R84   R(76,82)                1.8548         calculate D2E/DX2 analytically  !
 ! R85   R(76,89)                1.8311         calculate D2E/DX2 analytically  !
 ! R86   R(76,98)                1.7253         calculate D2E/DX2 analytically  !
 ! R87   R(77,80)                1.6079         calculate D2E/DX2 analytically  !
 ! R88   R(77,92)                1.76           calculate D2E/DX2 analytically  !
 ! R89   R(78,79)                0.957          calculate D2E/DX2 analytically  !
 ! R90   R(78,80)                0.9998         calculate D2E/DX2 analytically  !
 ! R91   R(81,82)                0.9733         calculate D2E/DX2 analytically  !
 ! R92   R(81,83)                0.9695         calculate D2E/DX2 analytically  !
 ! R93   R(81,91)                1.982          calculate D2E/DX2 analytically  !
 ! R94   R(83,99)                1.9102         calculate D2E/DX2 analytically  !
 ! R95   R(84,85)                0.9629         calculate D2E/DX2 analytically  !
 ! R96   R(84,86)                0.9807         calculate D2E/DX2 analytically  !
 ! R97   R(87,88)                0.9645         calculate D2E/DX2 analytically  !
 ! R98   R(87,89)                0.9784         calculate D2E/DX2 analytically  !
 ! R99   R(87,100)               1.7623         calculate D2E/DX2 analytically  !
 ! R100  R(90,91)                0.9686         calculate D2E/DX2 analytically  !
 ! R101  R(90,92)                0.9773         calculate D2E/DX2 analytically  !
 ! R102  R(93,94)                0.9616         calculate D2E/DX2 analytically  !
 ! R103  R(93,95)                0.9792         calculate D2E/DX2 analytically  !
 ! R104  R(96,97)                0.9557         calculate D2E/DX2 analytically  !
 ! R105  R(96,98)                0.9886         calculate D2E/DX2 analytically  !
 ! R106  R(99,100)               0.9817         calculate D2E/DX2 analytically  !
 ! R107  R(99,101)               0.9556         calculate D2E/DX2 analytically  !
 ! A1    A(2,1,3)              110.9696         calculate D2E/DX2 analytically  !
 ! A2    A(2,1,4)              111.2964         calculate D2E/DX2 analytically  !
 ! A3    A(2,1,5)              110.9493         calculate D2E/DX2 analytically  !
 ! A4    A(3,1,4)              107.9402         calculate D2E/DX2 analytically  !
 ! A5    A(3,1,5)              107.8309         calculate D2E/DX2 analytically  !
 ! A6    A(4,1,5)              107.7016         calculate D2E/DX2 analytically  !
 ! A7    A(1,2,6)              113.768          calculate D2E/DX2 analytically  !
 ! A8    A(1,2,7)              109.6926         calculate D2E/DX2 analytically  !
 ! A9    A(1,2,8)              109.5052         calculate D2E/DX2 analytically  !
 ! A10   A(6,2,7)              108.9986         calculate D2E/DX2 analytically  !
 ! A11   A(6,2,8)              108.3171         calculate D2E/DX2 analytically  !
 ! A12   A(7,2,8)              106.281          calculate D2E/DX2 analytically  !
 ! A13   A(2,6,9)              109.9943         calculate D2E/DX2 analytically  !
 ! A14   A(2,6,10)             107.2736         calculate D2E/DX2 analytically  !
 ! A15   A(2,6,32)             111.1144         calculate D2E/DX2 analytically  !
 ! A16   A(9,6,10)             106.9582         calculate D2E/DX2 analytically  !
 ! A17   A(9,6,32)             114.1823         calculate D2E/DX2 analytically  !
 ! A18   A(10,6,32)            106.956          calculate D2E/DX2 analytically  !
 ! A19   A(6,9,11)             109.7516         calculate D2E/DX2 analytically  !
 ! A20   A(6,9,12)             106.8247         calculate D2E/DX2 analytically  !
 ! A21   A(6,9,13)             116.3189         calculate D2E/DX2 analytically  !
 ! A22   A(11,9,12)            105.8749         calculate D2E/DX2 analytically  !
 ! A23   A(11,9,13)            109.4397         calculate D2E/DX2 analytically  !
 ! A24   A(12,9,13)            108.086          calculate D2E/DX2 analytically  !
 ! A25   A(9,13,14)            110.5491         calculate D2E/DX2 analytically  !
 ! A26   A(9,13,15)            107.7528         calculate D2E/DX2 analytically  !
 ! A27   A(9,13,22)            111.8798         calculate D2E/DX2 analytically  !
 ! A28   A(14,13,15)           107.1757         calculate D2E/DX2 analytically  !
 ! A29   A(14,13,22)           111.877          calculate D2E/DX2 analytically  !
 ! A30   A(15,13,22)           107.3516         calculate D2E/DX2 analytically  !
 ! A31   A(13,14,16)           109.3848         calculate D2E/DX2 analytically  !
 ! A32   A(13,14,17)           108.143          calculate D2E/DX2 analytically  !
 ! A33   A(13,14,18)           113.648          calculate D2E/DX2 analytically  !
 ! A34   A(16,14,17)           106.0655         calculate D2E/DX2 analytically  !
 ! A35   A(16,14,18)           109.8314         calculate D2E/DX2 analytically  !
 ! A36   A(17,14,18)           109.4778         calculate D2E/DX2 analytically  !
 ! A37   A(14,18,19)           111.0376         calculate D2E/DX2 analytically  !
 ! A38   A(14,18,20)           110.8607         calculate D2E/DX2 analytically  !
 ! A39   A(14,18,21)           111.3152         calculate D2E/DX2 analytically  !
 ! A40   A(19,18,20)           107.8526         calculate D2E/DX2 analytically  !
 ! A41   A(19,18,21)           107.9947         calculate D2E/DX2 analytically  !
 ! A42   A(20,18,21)           107.6265         calculate D2E/DX2 analytically  !
 ! A43   A(13,22,23)           120.9469         calculate D2E/DX2 analytically  !
 ! A44   A(13,22,24)           120.9026         calculate D2E/DX2 analytically  !
 ! A45   A(23,22,24)           118.0675         calculate D2E/DX2 analytically  !
 ! A46   A(22,23,25)           121.3111         calculate D2E/DX2 analytically  !
 ! A47   A(22,23,26)           119.2859         calculate D2E/DX2 analytically  !
 ! A48   A(25,23,26)           119.2597         calculate D2E/DX2 analytically  !
 ! A49   A(22,24,27)           120.8891         calculate D2E/DX2 analytically  !
 ! A50   A(22,24,28)           119.9701         calculate D2E/DX2 analytically  !
 ! A51   A(27,24,28)           119.0961         calculate D2E/DX2 analytically  !
 ! A52   A(23,25,29)           120.3311         calculate D2E/DX2 analytically  !
 ! A53   A(23,25,30)           120.1276         calculate D2E/DX2 analytically  !
 ! A54   A(29,25,30)           119.4515         calculate D2E/DX2 analytically  !
 ! A55   A(24,27,29)           120.6796         calculate D2E/DX2 analytically  !
 ! A56   A(24,27,31)           119.6452         calculate D2E/DX2 analytically  !
 ! A57   A(29,27,31)           119.5916         calculate D2E/DX2 analytically  !
 ! A58   A(25,29,27)           118.6176         calculate D2E/DX2 analytically  !
 ! A59   A(25,29,45)           120.4057         calculate D2E/DX2 analytically  !
 ! A60   A(27,29,45)           120.6189         calculate D2E/DX2 analytically  !
 ! A61   A(6,32,33)            120.6373         calculate D2E/DX2 analytically  !
 ! A62   A(6,32,34)            121.3519         calculate D2E/DX2 analytically  !
 ! A63   A(33,32,34)           118.0104         calculate D2E/DX2 analytically  !
 ! A64   A(32,33,35)           121.1104         calculate D2E/DX2 analytically  !
 ! A65   A(32,33,36)           119.389          calculate D2E/DX2 analytically  !
 ! A66   A(35,33,36)           119.4731         calculate D2E/DX2 analytically  !
 ! A67   A(32,34,37)           121.1461         calculate D2E/DX2 analytically  !
 ! A68   A(32,34,38)           119.851          calculate D2E/DX2 analytically  !
 ! A69   A(37,34,38)           118.9793         calculate D2E/DX2 analytically  !
 ! A70   A(33,35,39)           120.658          calculate D2E/DX2 analytically  !
 ! A71   A(33,35,40)           119.4763         calculate D2E/DX2 analytically  !
 ! A72   A(39,35,40)           119.833          calculate D2E/DX2 analytically  !
 ! A73   A(34,37,39)           120.5915         calculate D2E/DX2 analytically  !
 ! A74   A(34,37,41)           120.0219         calculate D2E/DX2 analytically  !
 ! A75   A(39,37,41)           119.382          calculate D2E/DX2 analytically  !
 ! A76   A(35,39,37)           118.47           calculate D2E/DX2 analytically  !
 ! A77   A(35,39,42)           121.8535         calculate D2E/DX2 analytically  !
 ! A78   A(37,39,42)           119.6065         calculate D2E/DX2 analytically  !
 ! A79   A(39,42,43)           110.6646         calculate D2E/DX2 analytically  !
 ! A80   A(39,42,44)           111.4973         calculate D2E/DX2 analytically  !
 ! A81   A(39,42,72)           115.0602         calculate D2E/DX2 analytically  !
 ! A82   A(43,42,44)           106.9694         calculate D2E/DX2 analytically  !
 ! A83   A(43,42,72)           106.0923         calculate D2E/DX2 analytically  !
 ! A84   A(44,42,72)           106.0742         calculate D2E/DX2 analytically  !
 ! A85   A(29,45,46)           111.3683         calculate D2E/DX2 analytically  !
 ! A86   A(29,45,47)           111.0523         calculate D2E/DX2 analytically  !
 ! A87   A(29,45,73)           116.244          calculate D2E/DX2 analytically  !
 ! A88   A(46,45,47)           106.593          calculate D2E/DX2 analytically  !
 ! A89   A(46,45,73)           105.9251         calculate D2E/DX2 analytically  !
 ! A90   A(47,45,73)           105.0079         calculate D2E/DX2 analytically  !
 ! A91   A(45,46,75)           126.7089         calculate D2E/DX2 analytically  !
 ! A92   A(45,47,95)           122.2773         calculate D2E/DX2 analytically  !
 ! A93   A(49,48,50)           109.5809         calculate D2E/DX2 analytically  !
 ! A94   A(49,48,51)           110.0261         calculate D2E/DX2 analytically  !
 ! A95   A(49,48,72)           109.2132         calculate D2E/DX2 analytically  !
 ! A96   A(50,48,51)           110.5467         calculate D2E/DX2 analytically  !
 ! A97   A(50,48,72)           108.1989         calculate D2E/DX2 analytically  !
 ! A98   A(51,48,72)           109.2389         calculate D2E/DX2 analytically  !
 ! A99   A(53,52,54)           111.2048         calculate D2E/DX2 analytically  !
 ! A100  A(53,52,55)           110.1923         calculate D2E/DX2 analytically  !
 ! A101  A(53,52,72)           109.0717         calculate D2E/DX2 analytically  !
 ! A102  A(54,52,55)           109.9542         calculate D2E/DX2 analytically  !
 ! A103  A(54,52,72)           108.6246         calculate D2E/DX2 analytically  !
 ! A104  A(55,52,72)           107.7069         calculate D2E/DX2 analytically  !
 ! A105  A(52,54,84)           164.1725         calculate D2E/DX2 analytically  !
 ! A106  A(57,56,58)           110.4308         calculate D2E/DX2 analytically  !
 ! A107  A(57,56,59)           109.7432         calculate D2E/DX2 analytically  !
 ! A108  A(57,56,72)           108.7868         calculate D2E/DX2 analytically  !
 ! A109  A(58,56,59)           109.908          calculate D2E/DX2 analytically  !
 ! A110  A(58,56,72)           109.1987         calculate D2E/DX2 analytically  !
 ! A111  A(59,56,72)           108.7394         calculate D2E/DX2 analytically  !
 ! A112  A(61,60,62)           110.733          calculate D2E/DX2 analytically  !
 ! A113  A(61,60,63)           111.0209         calculate D2E/DX2 analytically  !
 ! A114  A(61,60,73)           108.0599         calculate D2E/DX2 analytically  !
 ! A115  A(62,60,63)           109.6955         calculate D2E/DX2 analytically  !
 ! A116  A(62,60,73)           108.6433         calculate D2E/DX2 analytically  !
 ! A117  A(63,60,73)           108.6166         calculate D2E/DX2 analytically  !
 ! A118  A(65,64,66)           110.3327         calculate D2E/DX2 analytically  !
 ! A119  A(65,64,67)           110.1148         calculate D2E/DX2 analytically  !
 ! A120  A(65,64,73)           108.3581         calculate D2E/DX2 analytically  !
 ! A121  A(66,64,67)           110.0959         calculate D2E/DX2 analytically  !
 ! A122  A(66,64,73)           108.9705         calculate D2E/DX2 analytically  !
 ! A123  A(67,64,73)           108.9261         calculate D2E/DX2 analytically  !
 ! A124  A(69,68,70)           110.1968         calculate D2E/DX2 analytically  !
 ! A125  A(69,68,71)           110.1302         calculate D2E/DX2 analytically  !
 ! A126  A(69,68,73)           109.1492         calculate D2E/DX2 analytically  !
 ! A127  A(70,68,71)           110.8233         calculate D2E/DX2 analytically  !
 ! A128  A(70,68,73)           108.3265         calculate D2E/DX2 analytically  !
 ! A129  A(71,68,73)           108.1552         calculate D2E/DX2 analytically  !
 ! A130  A(42,72,48)           107.4373         calculate D2E/DX2 analytically  !
 ! A131  A(42,72,52)           111.6364         calculate D2E/DX2 analytically  !
 ! A132  A(42,72,56)           110.3345         calculate D2E/DX2 analytically  !
 ! A133  A(48,72,52)           108.5464         calculate D2E/DX2 analytically  !
 ! A134  A(48,72,56)           109.197          calculate D2E/DX2 analytically  !
 ! A135  A(52,72,56)           109.6201         calculate D2E/DX2 analytically  !
 ! A136  A(45,73,60)           107.5075         calculate D2E/DX2 analytically  !
 ! A137  A(45,73,64)           109.676          calculate D2E/DX2 analytically  !
 ! A138  A(45,73,68)           111.3256         calculate D2E/DX2 analytically  !
 ! A139  A(60,73,64)           109.3474         calculate D2E/DX2 analytically  !
 ! A140  A(60,73,68)           108.7545         calculate D2E/DX2 analytically  !
 ! A141  A(64,73,68)           110.1679         calculate D2E/DX2 analytically  !
 ! A142  A(75,74,76)           120.235          calculate D2E/DX2 analytically  !
 ! A143  A(75,74,77)           119.2734         calculate D2E/DX2 analytically  !
 ! A144  A(76,74,77)           120.4914         calculate D2E/DX2 analytically  !
 ! A145  A(43,75,46)            79.8964         calculate D2E/DX2 analytically  !
 ! A146  A(43,75,74)           103.348          calculate D2E/DX2 analytically  !
 ! A147  A(43,75,86)            75.2794         calculate D2E/DX2 analytically  !
 ! A148  A(43,75,95)           143.2918         calculate D2E/DX2 analytically  !
 ! A149  A(46,75,74)           108.5928         calculate D2E/DX2 analytically  !
 ! A150  A(46,75,86)           128.0911         calculate D2E/DX2 analytically  !
 ! A151  A(46,75,95)            88.8416         calculate D2E/DX2 analytically  !
 ! A152  A(74,75,86)           121.0895         calculate D2E/DX2 analytically  !
 ! A153  A(74,75,95)           113.3543         calculate D2E/DX2 analytically  !
 ! A154  A(86,75,95)            85.0378         calculate D2E/DX2 analytically  !
 ! A155  A(74,76,82)           116.3889         calculate D2E/DX2 analytically  !
 ! A156  A(74,76,89)           109.7707         calculate D2E/DX2 analytically  !
 ! A157  A(74,76,98)           111.7489         calculate D2E/DX2 analytically  !
 ! A158  A(82,76,89)            78.1323         calculate D2E/DX2 analytically  !
 ! A159  A(82,76,98)           106.3905         calculate D2E/DX2 analytically  !
 ! A160  A(89,76,98)           129.8794         calculate D2E/DX2 analytically  !
 ! A161  A(74,77,80)           127.8865         calculate D2E/DX2 analytically  !
 ! A162  A(74,77,92)           115.6697         calculate D2E/DX2 analytically  !
 ! A163  A(80,77,92)           100.5538         calculate D2E/DX2 analytically  !
 ! A164  A(79,78,80)           104.3423         calculate D2E/DX2 analytically  !
 ! A165  A(82,81,83)           103.7617         calculate D2E/DX2 analytically  !
 ! A166  A(82,81,91)            89.2753         calculate D2E/DX2 analytically  !
 ! A167  A(83,81,91)           100.5465         calculate D2E/DX2 analytically  !
 ! A168  A(81,83,99)           157.9605         calculate D2E/DX2 analytically  !
 ! A169  A(54,84,85)           136.7193         calculate D2E/DX2 analytically  !
 ! A170  A(54,84,86)           103.3099         calculate D2E/DX2 analytically  !
 ! A171  A(85,84,86)           101.2934         calculate D2E/DX2 analytically  !
 ! A172  A(88,87,89)           102.7982         calculate D2E/DX2 analytically  !
 ! A173  A(88,87,100)          102.4683         calculate D2E/DX2 analytically  !
 ! A174  A(89,87,100)          104.3153         calculate D2E/DX2 analytically  !
 ! A175  A(91,90,92)           103.3438         calculate D2E/DX2 analytically  !
 ! A176  A(81,91,90)           158.7961         calculate D2E/DX2 analytically  !
 ! A177  A(94,93,95)           101.6193         calculate D2E/DX2 analytically  !
 ! A178  A(47,95,75)            88.6079         calculate D2E/DX2 analytically  !
 ! A179  A(47,95,93)            87.1369         calculate D2E/DX2 analytically  !
 ! A180  A(97,96,98)           105.3418         calculate D2E/DX2 analytically  !
 ! A181  A(83,99,100)           89.0949         calculate D2E/DX2 analytically  !
 ! A182  A(83,99,101)          120.1768         calculate D2E/DX2 analytically  !
 ! A183  A(100,99,101)         105.756          calculate D2E/DX2 analytically  !
 ! A184  L(42,43,75,11,-1)     188.814          calculate D2E/DX2 analytically  !
 ! A185  L(77,80,78,3,-1)      185.2696         calculate D2E/DX2 analytically  !
 ! A186  L(76,82,81,1,-1)      177.5928         calculate D2E/DX2 analytically  !
 ! A187  L(75,86,84,1,-1)      178.2843         calculate D2E/DX2 analytically  !
 ! A188  L(76,89,87,61,-1)     189.0658         calculate D2E/DX2 analytically  !
 ! A189  L(77,92,90,40,-1)     177.8762         calculate D2E/DX2 analytically  !
 ! A190  L(75,95,93,47,-1)     175.7447         calculate D2E/DX2 analytically  !
 ! A191  L(76,98,96,1,-1)      178.3592         calculate D2E/DX2 analytically  !
 ! A192  L(87,100,99,3,-1)     168.6017         calculate D2E/DX2 analytically  !
 ! A193  L(42,43,75,11,-2)     169.1014         calculate D2E/DX2 analytically  !
 ! A194  L(77,80,78,3,-2)      177.5583         calculate D2E/DX2 analytically  !
 ! A195  L(76,82,81,1,-2)      188.8            calculate D2E/DX2 analytically  !
 ! A196  L(75,86,84,1,-2)      183.8194         calculate D2E/DX2 analytically  !
 ! A197  L(76,89,87,61,-2)     173.9509         calculate D2E/DX2 analytically  !
 ! A198  L(77,92,90,40,-2)     175.3247         calculate D2E/DX2 analytically  !
 ! A199  L(75,95,93,47,-2)     175.7737         calculate D2E/DX2 analytically  !
 ! A200  L(76,98,96,1,-2)      178.9001         calculate D2E/DX2 analytically  !
 ! A201  L(87,100,99,3,-2)     182.739          calculate D2E/DX2 analytically  !
 ! D1    D(3,1,2,6)            177.5226         calculate D2E/DX2 analytically  !
 ! D2    D(3,1,2,7)            -60.1044         calculate D2E/DX2 analytically  !
 ! D3    D(3,1,2,8)             56.17           calculate D2E/DX2 analytically  !
 ! D4    D(4,1,2,6)            -62.2493         calculate D2E/DX2 analytically  !
 ! D5    D(4,1,2,7)             60.1237         calculate D2E/DX2 analytically  !
 ! D6    D(4,1,2,8)            176.3982         calculate D2E/DX2 analytically  !
 ! D7    D(5,1,2,6)             57.6636         calculate D2E/DX2 analytically  !
 ! D8    D(5,1,2,7)           -179.9634         calculate D2E/DX2 analytically  !
 ! D9    D(5,1,2,8)            -63.689          calculate D2E/DX2 analytically  !
 ! D10   D(1,2,6,9)           -173.8692         calculate D2E/DX2 analytically  !
 ! D11   D(1,2,6,10)           -57.8809         calculate D2E/DX2 analytically  !
 ! D12   D(1,2,6,32)            58.7007         calculate D2E/DX2 analytically  !
 ! D13   D(7,2,6,9)             63.3763         calculate D2E/DX2 analytically  !
 ! D14   D(7,2,6,10)           179.3646         calculate D2E/DX2 analytically  !
 ! D15   D(7,2,6,32)           -64.0538         calculate D2E/DX2 analytically  !
 ! D16   D(8,2,6,9)            -51.857          calculate D2E/DX2 analytically  !
 ! D17   D(8,2,6,10)            64.1312         calculate D2E/DX2 analytically  !
 ! D18   D(8,2,6,32)          -179.2872         calculate D2E/DX2 analytically  !
 ! D19   D(2,6,9,11)           -60.1646         calculate D2E/DX2 analytically  !
 ! D20   D(2,6,9,12)            54.1792         calculate D2E/DX2 analytically  !
 ! D21   D(2,6,9,13)           174.9369         calculate D2E/DX2 analytically  !
 ! D22   D(10,6,9,11)         -176.3512         calculate D2E/DX2 analytically  !
 ! D23   D(10,6,9,12)          -62.0074         calculate D2E/DX2 analytically  !
 ! D24   D(10,6,9,13)           58.7503         calculate D2E/DX2 analytically  !
 ! D25   D(32,6,9,11)           65.5395         calculate D2E/DX2 analytically  !
 ! D26   D(32,6,9,12)          179.8834         calculate D2E/DX2 analytically  !
 ! D27   D(32,6,9,13)          -59.3589         calculate D2E/DX2 analytically  !
 ! D28   D(2,6,32,33)         -114.3009         calculate D2E/DX2 analytically  !
 ! D29   D(2,6,32,34)           65.9298         calculate D2E/DX2 analytically  !
 ! D30   D(9,6,32,33)          120.5857         calculate D2E/DX2 analytically  !
 ! D31   D(9,6,32,34)          -59.1836         calculate D2E/DX2 analytically  !
 ! D32   D(10,6,32,33)           2.4752         calculate D2E/DX2 analytically  !
 ! D33   D(10,6,32,34)        -177.2941         calculate D2E/DX2 analytically  !
 ! D34   D(6,9,13,14)         -154.8728         calculate D2E/DX2 analytically  !
 ! D35   D(6,9,13,15)          -38.0552         calculate D2E/DX2 analytically  !
 ! D36   D(6,9,13,22)           79.7214         calculate D2E/DX2 analytically  !
 ! D37   D(11,9,13,14)          80.07           calculate D2E/DX2 analytically  !
 ! D38   D(11,9,13,15)        -163.1123         calculate D2E/DX2 analytically  !
 ! D39   D(11,9,13,22)         -45.3358         calculate D2E/DX2 analytically  !
 ! D40   D(12,9,13,14)         -34.7906         calculate D2E/DX2 analytically  !
 ! D41   D(12,9,13,15)          82.0271         calculate D2E/DX2 analytically  !
 ! D42   D(12,9,13,22)        -160.1964         calculate D2E/DX2 analytically  !
 ! D43   D(9,13,14,16)         -59.2611         calculate D2E/DX2 analytically  !
 ! D44   D(9,13,14,17)          55.827          calculate D2E/DX2 analytically  !
 ! D45   D(9,13,14,18)         177.5991         calculate D2E/DX2 analytically  !
 ! D46   D(15,13,14,16)       -176.4352         calculate D2E/DX2 analytically  !
 ! D47   D(15,13,14,17)        -61.347          calculate D2E/DX2 analytically  !
 ! D48   D(15,13,14,18)         60.425          calculate D2E/DX2 analytically  !
 ! D49   D(22,13,14,16)         66.1463         calculate D2E/DX2 analytically  !
 ! D50   D(22,13,14,17)       -178.7655         calculate D2E/DX2 analytically  !
 ! D51   D(22,13,14,18)        -56.9935         calculate D2E/DX2 analytically  !
 ! D52   D(9,13,22,23)        -111.7897         calculate D2E/DX2 analytically  !
 ! D53   D(9,13,22,24)          64.8344         calculate D2E/DX2 analytically  !
 ! D54   D(14,13,22,23)        123.5395         calculate D2E/DX2 analytically  !
 ! D55   D(14,13,22,24)        -59.8364         calculate D2E/DX2 analytically  !
 ! D56   D(15,13,22,23)          6.2266         calculate D2E/DX2 analytically  !
 ! D57   D(15,13,22,24)       -177.1493         calculate D2E/DX2 analytically  !
 ! D58   D(13,14,18,19)       -177.1597         calculate D2E/DX2 analytically  !
 ! D59   D(13,14,18,20)        -57.2869         calculate D2E/DX2 analytically  !
 ! D60   D(13,14,18,21)         62.4844         calculate D2E/DX2 analytically  !
 ! D61   D(16,14,18,19)         59.9453         calculate D2E/DX2 analytically  !
 ! D62   D(16,14,18,20)        179.8181         calculate D2E/DX2 analytically  !
 ! D63   D(16,14,18,21)        -60.4105         calculate D2E/DX2 analytically  !
 ! D64   D(17,14,18,19)        -56.1325         calculate D2E/DX2 analytically  !
 ! D65   D(17,14,18,20)         63.7402         calculate D2E/DX2 analytically  !
 ! D66   D(17,14,18,21)       -176.4884         calculate D2E/DX2 analytically  !
 ! D67   D(13,22,23,25)        172.8664         calculate D2E/DX2 analytically  !
 ! D68   D(13,22,23,26)         -2.75           calculate D2E/DX2 analytically  !
 ! D69   D(24,22,23,25)         -3.8509         calculate D2E/DX2 analytically  !
 ! D70   D(24,22,23,26)       -179.4673         calculate D2E/DX2 analytically  !
 ! D71   D(13,22,24,27)       -174.323          calculate D2E/DX2 analytically  !
 ! D72   D(13,22,24,28)          3.2238         calculate D2E/DX2 analytically  !
 ! D73   D(23,22,24,27)          2.3959         calculate D2E/DX2 analytically  !
 ! D74   D(23,22,24,28)        179.9427         calculate D2E/DX2 analytically  !
 ! D75   D(22,23,25,29)          2.6182         calculate D2E/DX2 analytically  !
 ! D76   D(22,23,25,30)       -173.9163         calculate D2E/DX2 analytically  !
 ! D77   D(26,23,25,29)        178.2357         calculate D2E/DX2 analytically  !
 ! D78   D(26,23,25,30)          1.7013         calculate D2E/DX2 analytically  !
 ! D79   D(22,24,27,29)          0.2891         calculate D2E/DX2 analytically  !
 ! D80   D(22,24,27,31)        176.9509         calculate D2E/DX2 analytically  !
 ! D81   D(28,24,27,29)       -177.2789         calculate D2E/DX2 analytically  !
 ! D82   D(28,24,27,31)         -0.617          calculate D2E/DX2 analytically  !
 ! D83   D(23,25,29,27)          0.1519         calculate D2E/DX2 analytically  !
 ! D84   D(23,25,29,45)       -173.023          calculate D2E/DX2 analytically  !
 ! D85   D(30,25,29,27)        176.7098         calculate D2E/DX2 analytically  !
 ! D86   D(30,25,29,45)          3.5348         calculate D2E/DX2 analytically  !
 ! D87   D(24,27,29,25)         -1.5817         calculate D2E/DX2 analytically  !
 ! D88   D(24,27,29,45)        171.5782         calculate D2E/DX2 analytically  !
 ! D89   D(31,27,29,25)       -178.2454         calculate D2E/DX2 analytically  !
 ! D90   D(31,27,29,45)         -5.0854         calculate D2E/DX2 analytically  !
 ! D91   D(25,29,45,46)         34.6444         calculate D2E/DX2 analytically  !
 ! D92   D(25,29,45,47)        153.2765         calculate D2E/DX2 analytically  !
 ! D93   D(25,29,45,73)        -86.7812         calculate D2E/DX2 analytically  !
 ! D94   D(27,29,45,46)       -138.393          calculate D2E/DX2 analytically  !
 ! D95   D(27,29,45,47)        -19.7609         calculate D2E/DX2 analytically  !
 ! D96   D(27,29,45,73)        100.1814         calculate D2E/DX2 analytically  !
 ! D97   D(6,32,33,35)        -178.4141         calculate D2E/DX2 analytically  !
 ! D98   D(6,32,33,36)          -0.3311         calculate D2E/DX2 analytically  !
 ! D99   D(34,32,33,35)          1.3628         calculate D2E/DX2 analytically  !
 ! D100  D(34,32,33,36)        179.4458         calculate D2E/DX2 analytically  !
 ! D101  D(6,32,34,37)         178.8189         calculate D2E/DX2 analytically  !
 ! D102  D(6,32,34,38)           0.6025         calculate D2E/DX2 analytically  !
 ! D103  D(33,32,34,37)         -0.9563         calculate D2E/DX2 analytically  !
 ! D104  D(33,32,34,38)       -179.1727         calculate D2E/DX2 analytically  !
 ! D105  D(32,33,35,39)         -1.2271         calculate D2E/DX2 analytically  !
 ! D106  D(32,33,35,40)        176.6928         calculate D2E/DX2 analytically  !
 ! D107  D(36,33,35,39)       -179.3085         calculate D2E/DX2 analytically  !
 ! D108  D(36,33,35,40)         -1.3886         calculate D2E/DX2 analytically  !
 ! D109  D(32,34,37,39)          0.4052         calculate D2E/DX2 analytically  !
 ! D110  D(32,34,37,41)       -178.8063         calculate D2E/DX2 analytically  !
 ! D111  D(38,34,37,39)        178.6368         calculate D2E/DX2 analytically  !
 ! D112  D(38,34,37,41)         -0.5747         calculate D2E/DX2 analytically  !
 ! D113  D(33,35,39,37)          0.6301         calculate D2E/DX2 analytically  !
 ! D114  D(33,35,39,42)        177.5752         calculate D2E/DX2 analytically  !
 ! D115  D(40,35,39,37)       -177.2824         calculate D2E/DX2 analytically  !
 ! D116  D(40,35,39,42)         -0.3373         calculate D2E/DX2 analytically  !
 ! D117  D(34,37,39,35)         -0.2262         calculate D2E/DX2 analytically  !
 ! D118  D(34,37,39,42)       -177.2417         calculate D2E/DX2 analytically  !
 ! D119  D(41,37,39,35)        178.9903         calculate D2E/DX2 analytically  !
 ! D120  D(41,37,39,42)          1.9748         calculate D2E/DX2 analytically  !
 ! D121  D(35,39,42,43)       -151.9766         calculate D2E/DX2 analytically  !
 ! D122  D(35,39,42,44)        -33.0428         calculate D2E/DX2 analytically  !
 ! D123  D(35,39,42,72)         87.799          calculate D2E/DX2 analytically  !
 ! D124  D(37,39,42,43)         24.9346         calculate D2E/DX2 analytically  !
 ! D125  D(37,39,42,44)        143.8684         calculate D2E/DX2 analytically  !
 ! D126  D(37,39,42,72)        -95.2898         calculate D2E/DX2 analytically  !
 ! D127  D(39,42,75,46)         55.2781         calculate D2E/DX2 analytically  !
 ! D128  D(39,42,75,74)        162.5571         calculate D2E/DX2 analytically  !
 ! D129  D(39,42,75,86)        -77.3196         calculate D2E/DX2 analytically  !
 ! D130  D(39,42,75,95)        -14.3249         calculate D2E/DX2 analytically  !
 ! D131  D(44,42,75,46)        -63.9395         calculate D2E/DX2 analytically  !
 ! D132  D(44,42,75,74)         43.3395         calculate D2E/DX2 analytically  !
 ! D133  D(44,42,75,86)        163.4628         calculate D2E/DX2 analytically  !
 ! D134  D(44,42,75,95)       -133.5425         calculate D2E/DX2 analytically  !
 ! D135  D(72,42,75,46)       -173.7246         calculate D2E/DX2 analytically  !
 ! D136  D(72,42,75,74)        -66.4456         calculate D2E/DX2 analytically  !
 ! D137  D(72,42,75,86)         53.6777         calculate D2E/DX2 analytically  !
 ! D138  D(72,42,75,95)        116.6724         calculate D2E/DX2 analytically  !
 ! D139  D(39,42,72,48)        167.2298         calculate D2E/DX2 analytically  !
 ! D140  D(39,42,72,52)         48.3316         calculate D2E/DX2 analytically  !
 ! D141  D(39,42,72,56)        -73.8256         calculate D2E/DX2 analytically  !
 ! D142  D(43,42,72,48)         44.5223         calculate D2E/DX2 analytically  !
 ! D143  D(43,42,72,52)        -74.3759         calculate D2E/DX2 analytically  !
 ! D144  D(43,42,72,56)        163.4669         calculate D2E/DX2 analytically  !
 ! D145  D(44,42,72,48)        -69.009          calculate D2E/DX2 analytically  !
 ! D146  D(44,42,72,52)        172.0928         calculate D2E/DX2 analytically  !
 ! D147  D(44,42,72,56)         49.9356         calculate D2E/DX2 analytically  !
 ! D148  D(29,45,46,75)        125.0836         calculate D2E/DX2 analytically  !
 ! D149  D(47,45,46,75)          3.8128         calculate D2E/DX2 analytically  !
 ! D150  D(73,45,46,75)       -107.657          calculate D2E/DX2 analytically  !
 ! D151  D(29,45,47,95)       -142.8666         calculate D2E/DX2 analytically  !
 ! D152  D(46,45,47,95)        -21.3946         calculate D2E/DX2 analytically  !
 ! D153  D(73,45,47,95)         90.7101         calculate D2E/DX2 analytically  !
 ! D154  D(29,45,73,60)        171.6228         calculate D2E/DX2 analytically  !
 ! D155  D(29,45,73,64)        -69.5791         calculate D2E/DX2 analytically  !
 ! D156  D(29,45,73,68)         52.6065         calculate D2E/DX2 analytically  !
 ! D157  D(46,45,73,60)         47.3508         calculate D2E/DX2 analytically  !
 ! D158  D(46,45,73,64)        166.1489         calculate D2E/DX2 analytically  !
 ! D159  D(46,45,73,68)        -71.6655         calculate D2E/DX2 analytically  !
 ! D160  D(47,45,73,60)        -65.2279         calculate D2E/DX2 analytically  !
 ! D161  D(47,45,73,64)         53.5701         calculate D2E/DX2 analytically  !
 ! D162  D(47,45,73,68)        175.7557         calculate D2E/DX2 analytically  !
 ! D163  D(45,46,75,43)       -128.3862         calculate D2E/DX2 analytically  !
 ! D164  D(45,46,75,74)        130.8086         calculate D2E/DX2 analytically  !
 ! D165  D(45,46,75,86)        -66.2666         calculate D2E/DX2 analytically  !
 ! D166  D(45,46,75,95)         16.5077         calculate D2E/DX2 analytically  !
 ! D167  D(45,47,95,75)         31.0328         calculate D2E/DX2 analytically  !
 ! D168  D(45,47,95,93)       -144.7409         calculate D2E/DX2 analytically  !
 ! D169  D(49,48,72,42)        173.8532         calculate D2E/DX2 analytically  !
 ! D170  D(49,48,72,52)        -65.2813         calculate D2E/DX2 analytically  !
 ! D171  D(49,48,72,56)         54.1804         calculate D2E/DX2 analytically  !
 ! D172  D(50,48,72,42)        -66.9268         calculate D2E/DX2 analytically  !
 ! D173  D(50,48,72,52)         53.9387         calculate D2E/DX2 analytically  !
 ! D174  D(50,48,72,56)        173.4005         calculate D2E/DX2 analytically  !
 ! D175  D(51,48,72,42)         53.4739         calculate D2E/DX2 analytically  !
 ! D176  D(51,48,72,52)        174.3393         calculate D2E/DX2 analytically  !
 ! D177  D(51,48,72,56)        -66.1989         calculate D2E/DX2 analytically  !
 ! D178  D(53,52,54,84)        130.2422         calculate D2E/DX2 analytically  !
 ! D179  D(55,52,54,84)       -107.4312         calculate D2E/DX2 analytically  !
 ! D180  D(72,52,54,84)         10.2023         calculate D2E/DX2 analytically  !
 ! D181  D(53,52,72,42)        -64.3584         calculate D2E/DX2 analytically  !
 ! D182  D(53,52,72,48)        177.405          calculate D2E/DX2 analytically  !
 ! D183  D(53,52,72,56)         58.2086         calculate D2E/DX2 analytically  !
 ! D184  D(54,52,72,42)         56.9991         calculate D2E/DX2 analytically  !
 ! D185  D(54,52,72,48)        -61.2376         calculate D2E/DX2 analytically  !
 ! D186  D(54,52,72,56)        179.5661         calculate D2E/DX2 analytically  !
 ! D187  D(55,52,72,42)        176.0534         calculate D2E/DX2 analytically  !
 ! D188  D(55,52,72,48)         57.8167         calculate D2E/DX2 analytically  !
 ! D189  D(55,52,72,56)        -61.3796         calculate D2E/DX2 analytically  !
 ! D190  D(52,54,84,85)        100.6669         calculate D2E/DX2 analytically  !
 ! D191  D(52,54,84,86)        -22.3405         calculate D2E/DX2 analytically  !
 ! D192  D(57,56,72,42)        -59.5924         calculate D2E/DX2 analytically  !
 ! D193  D(57,56,72,48)         58.2751         calculate D2E/DX2 analytically  !
 ! D194  D(57,56,72,52)        177.0702         calculate D2E/DX2 analytically  !
 ! D195  D(58,56,72,42)         60.9972         calculate D2E/DX2 analytically  !
 ! D196  D(58,56,72,48)        178.8646         calculate D2E/DX2 analytically  !
 ! D197  D(58,56,72,52)        -62.3402         calculate D2E/DX2 analytically  !
 ! D198  D(59,56,72,42)       -179.0771         calculate D2E/DX2 analytically  !
 ! D199  D(59,56,72,48)        -61.2096         calculate D2E/DX2 analytically  !
 ! D200  D(59,56,72,52)         57.5856         calculate D2E/DX2 analytically  !
 ! D201  D(61,60,73,45)        177.3148         calculate D2E/DX2 analytically  !
 ! D202  D(61,60,73,64)         58.3059         calculate D2E/DX2 analytically  !
 ! D203  D(61,60,73,68)        -62.0334         calculate D2E/DX2 analytically  !
 ! D204  D(62,60,73,45)        -62.4871         calculate D2E/DX2 analytically  !
 ! D205  D(62,60,73,64)        178.504          calculate D2E/DX2 analytically  !
 ! D206  D(62,60,73,68)         58.1647         calculate D2E/DX2 analytically  !
 ! D207  D(63,60,73,45)         56.786          calculate D2E/DX2 analytically  !
 ! D208  D(63,60,73,64)        -62.2229         calculate D2E/DX2 analytically  !
 ! D209  D(63,60,73,68)        177.4378         calculate D2E/DX2 analytically  !
 ! D210  D(65,64,73,45)        -60.5828         calculate D2E/DX2 analytically  !
 ! D211  D(65,64,73,60)         57.0732         calculate D2E/DX2 analytically  !
 ! D212  D(65,64,73,68)        176.5441         calculate D2E/DX2 analytically  !
 ! D213  D(66,64,73,45)         59.4967         calculate D2E/DX2 analytically  !
 ! D214  D(66,64,73,60)        177.1527         calculate D2E/DX2 analytically  !
 ! D215  D(66,64,73,68)        -63.3764         calculate D2E/DX2 analytically  !
 ! D216  D(67,64,73,45)        179.6264         calculate D2E/DX2 analytically  !
 ! D217  D(67,64,73,60)        -62.7177         calculate D2E/DX2 analytically  !
 ! D218  D(67,64,73,68)         56.7532         calculate D2E/DX2 analytically  !
 ! D219  D(69,68,73,45)        -66.2927         calculate D2E/DX2 analytically  !
 ! D220  D(69,68,73,60)        175.4386         calculate D2E/DX2 analytically  !
 ! D221  D(69,68,73,64)         55.608          calculate D2E/DX2 analytically  !
 ! D222  D(70,68,73,45)         53.7082         calculate D2E/DX2 analytically  !
 ! D223  D(70,68,73,60)        -64.5606         calculate D2E/DX2 analytically  !
 ! D224  D(70,68,73,64)        175.6089         calculate D2E/DX2 analytically  !
 ! D225  D(71,68,73,45)        173.888          calculate D2E/DX2 analytically  !
 ! D226  D(71,68,73,60)         55.6193         calculate D2E/DX2 analytically  !
 ! D227  D(71,68,73,64)        -64.2113         calculate D2E/DX2 analytically  !
 ! D228  D(76,74,75,43)        119.8658         calculate D2E/DX2 analytically  !
 ! D229  D(76,74,75,46)       -156.4731         calculate D2E/DX2 analytically  !
 ! D230  D(76,74,75,86)         39.1825         calculate D2E/DX2 analytically  !
 ! D231  D(76,74,75,95)        -59.4644         calculate D2E/DX2 analytically  !
 ! D232  D(77,74,75,43)        -59.9471         calculate D2E/DX2 analytically  !
 ! D233  D(77,74,75,46)         23.714          calculate D2E/DX2 analytically  !
 ! D234  D(77,74,75,86)       -140.6304         calculate D2E/DX2 analytically  !
 ! D235  D(77,74,75,95)        120.7227         calculate D2E/DX2 analytically  !
 ! D236  D(75,74,76,82)       -112.2587         calculate D2E/DX2 analytically  !
 ! D237  D(75,74,76,89)        161.5033         calculate D2E/DX2 analytically  !
 ! D238  D(75,74,76,98)         10.2269         calculate D2E/DX2 analytically  !
 ! D239  D(77,74,76,82)         67.552          calculate D2E/DX2 analytically  !
 ! D240  D(77,74,76,89)        -18.6861         calculate D2E/DX2 analytically  !
 ! D241  D(77,74,76,98)       -169.9625         calculate D2E/DX2 analytically  !
 ! D242  D(75,74,77,80)         10.3461         calculate D2E/DX2 analytically  !
 ! D243  D(75,74,77,92)        139.5037         calculate D2E/DX2 analytically  !
 ! D244  D(76,74,77,80)       -169.4663         calculate D2E/DX2 analytically  !
 ! D245  D(76,74,77,92)        -40.3088         calculate D2E/DX2 analytically  !
 ! D246  D(43,75,84,54)        -15.0232         calculate D2E/DX2 analytically  !
 ! D247  D(43,75,84,85)       -158.5219         calculate D2E/DX2 analytically  !
 ! D248  D(46,75,84,54)        -77.7877         calculate D2E/DX2 analytically  !
 ! D249  D(46,75,84,85)        138.7137         calculate D2E/DX2 analytically  !
 ! D250  D(74,75,84,54)         81.3227         calculate D2E/DX2 analytically  !
 ! D251  D(74,75,84,85)        -62.1759         calculate D2E/DX2 analytically  !
 ! D252  D(95,75,84,54)       -163.5437         calculate D2E/DX2 analytically  !
 ! D253  D(95,75,84,85)         52.9577         calculate D2E/DX2 analytically  !
 ! D254  D(43,75,95,47)         56.4064         calculate D2E/DX2 analytically  !
 ! D255  D(46,75,95,47)        -14.8903         calculate D2E/DX2 analytically  !
 ! D256  D(74,75,95,47)       -124.6839         calculate D2E/DX2 analytically  !
 ! D257  D(86,75,95,47)        113.5075         calculate D2E/DX2 analytically  !
 ! D258  D(74,76,81,83)       -147.5351         calculate D2E/DX2 analytically  !
 ! D259  D(74,76,81,91)        -48.3743         calculate D2E/DX2 analytically  !
 ! D260  D(89,76,81,83)        -41.3886         calculate D2E/DX2 analytically  !
 ! D261  D(89,76,81,91)         57.7722         calculate D2E/DX2 analytically  !
 ! D262  D(98,76,81,83)         86.6904         calculate D2E/DX2 analytically  !
 ! D263  D(98,76,81,91)       -174.1489         calculate D2E/DX2 analytically  !
 ! D264  D(74,76,87,88)         43.8408         calculate D2E/DX2 analytically  !
 ! D265  D(74,76,87,100)       148.2409         calculate D2E/DX2 analytically  !
 ! D266  D(82,76,87,88)        -69.0178         calculate D2E/DX2 analytically  !
 ! D267  D(82,76,87,100)        35.3823         calculate D2E/DX2 analytically  !
 ! D268  D(98,76,87,88)       -167.4014         calculate D2E/DX2 analytically  !
 ! D269  D(98,76,87,100)       -63.0013         calculate D2E/DX2 analytically  !
 ! D270  D(74,76,96,97)        176.3095         calculate D2E/DX2 analytically  !
 ! D271  D(82,76,96,97)        -55.8395         calculate D2E/DX2 analytically  !
 ! D272  D(89,76,96,97)         32.7513         calculate D2E/DX2 analytically  !
 ! D273  D(74,77,78,79)        161.7891         calculate D2E/DX2 analytically  !
 ! D274  D(92,77,78,79)         26.6814         calculate D2E/DX2 analytically  !
 ! D275  D(74,77,90,91)         -1.3246         calculate D2E/DX2 analytically  !
 ! D276  D(80,77,90,91)        139.358          calculate D2E/DX2 analytically  !
 ! D277  D(82,81,83,99)         38.5404         calculate D2E/DX2 analytically  !
 ! D278  D(91,81,83,99)        -53.3137         calculate D2E/DX2 analytically  !
 ! D279  D(82,81,91,90)         12.86           calculate D2E/DX2 analytically  !
 ! D280  D(83,81,91,90)        116.7251         calculate D2E/DX2 analytically  !
 ! D281  D(81,83,99,100)         2.5641         calculate D2E/DX2 analytically  !
 ! D282  D(81,83,99,101)      -105.1918         calculate D2E/DX2 analytically  !
 ! D283  D(88,87,99,83)         64.7716         calculate D2E/DX2 analytically  !
 ! D284  D(88,87,99,101)      -176.0849         calculate D2E/DX2 analytically  !
 ! D285  D(89,87,99,83)        -40.7018         calculate D2E/DX2 analytically  !
 ! D286  D(89,87,99,101)        78.4417         calculate D2E/DX2 analytically  !
 ! D287  D(92,90,91,81)          2.0984         calculate D2E/DX2 analytically  !
 ! D288  D(94,93,95,47)       -165.5801         calculate D2E/DX2 analytically  !
 --------------------------------------------------------------------------------
 Trust Radius=3.00D-01 FncErr=1.00D-07 GrdErr=1.00D-06 EigMax=2.50D+02 EigMin=1.00D-04
 Number of steps in this run=    606 maximum allowed number of steps=    606.
 GradGradGradGradGradGradGradGradGradGradGradGradGradGradGradGradGradGrad

 Leave Link  103 at Thu Mar 14 13:19:12 2024, MaxMem=  1073741824 cpu:               0.6 elap:               0.1
 (Enter /packages/apps/gaussian/g16/g16/l202.exe)
 Stoichiometry    C28H60N2O11
 Framework group  C1[X(C28H60N2O11)]
 Deg. of freedom   297
 Full point group                 C1      NOp   1
 Largest Abelian subgroup         C1      NOp   1
 Largest concise Abelian subgroup C1      NOp   1
                         Standard orientation:                         
 ---------------------------------------------------------------------
 Center     Atomic      Atomic             Coordinates (Angstroms)
 Number     Number       Type             X           Y           Z
 ---------------------------------------------------------------------
      1          6           0        5.133606   -4.383016    0.784829
      2          6           0        5.540125   -2.975371    1.203737
      3          1           0        5.480318   -5.120632    1.508241
      4          1           0        4.050097   -4.474907    0.704482
      5          1           0        5.561542   -4.640259   -0.186250
      6          6           0        5.134757   -1.887395    0.195609
      7          1           0        5.101755   -2.739618    2.177397
      8          1           0        6.623757   -2.933127    1.337360
      9          6           0        5.716798   -0.529886    0.624483
     10          1           0        5.596743   -2.144372   -0.763462
     11          1           0        5.333523   -0.258884    1.612320
     12          1           0        6.793056   -0.672652    0.750233
     13          6           0        5.500490    0.645057   -0.349824
     14          6           0        6.590302    1.711426   -0.159227
     15          1           0        5.602436    0.257031   -1.368662
     16          1           0        6.562098    2.079298    0.870298
     17          1           0        7.562982    1.229393   -0.281481
     18          6           0        6.477333    2.881046   -1.129408
     19          1           0        7.297475    3.585226   -0.990473
     20          1           0        6.506984    2.532518   -2.163716
     21          1           0        5.541222    3.422505   -0.990157
     22          6           0        4.108568    1.231850   -0.226812
     23          6           0        3.182888    1.097284   -1.254570
     24          6           0        3.698518    1.860021    0.946002
     25          6           0        1.868388    1.499857   -1.095807
     26          1           0        3.477979    0.604484   -2.171491
     27          6           0        2.392104    2.292331    1.101642
     28          1           0        4.394350    1.980511    1.766856
     29          6           0        1.456039    2.102850    0.089304
     30          1           0        1.140065    1.297036   -1.871773
     31          1           0        2.082116    2.733935    2.041108
     32          6           0        3.635676   -1.878368   -0.024359
     33          6           0        3.099480   -2.215056   -1.261143
     34          6           0        2.754859   -1.530059    0.997986
     35          6           0        1.730429   -2.178617   -1.482828
     36          1           0        3.764078   -2.480603   -2.074098
     37          6           0        1.388395   -1.499858    0.785668
     38          1           0        3.140939   -1.249575    1.969507
     39          6           0        0.856409   -1.827271   -0.461431
     40          1           0        1.344718   -2.394087   -2.471788
     41          1           0        0.721192   -1.207640    1.588339
     42          6           0       -0.622601   -1.727334   -0.685121
     43          1           0       -1.067898   -1.009118    0.002818
     44          1           0       -0.851431   -1.385772   -1.693086
     45          6           0        0.006662    2.397578    0.325547
     46          1           0       -0.628655    1.636222   -0.115401
     47          1           0       -0.220342    2.413831    1.388683
     48          6           0       -2.850167   -2.683271   -0.444636
     49          1           0       -3.433421   -3.598764   -0.419142
     50          1           0       -3.031846   -2.110921    0.459517
     51          1           0       -3.110976   -2.100038   -1.324308
     52          6           0       -1.022099   -3.706212    0.779912
     53          1           0        0.021996   -4.001323    0.733825
     54          1           0       -1.201137   -3.016902    1.605999
     55          1           0       -1.655982   -4.583764    0.884726
     56          6           0       -1.148401   -3.943835   -1.636028
     57          1           0       -1.471864   -3.456205   -2.552072
     58          1           0       -0.088636   -4.178005   -1.684877
     59          1           0       -1.721964   -4.854348   -1.482462
     60          6           0       -1.996114    3.732508   -0.053396
     61          1           0       -2.366990    4.699070   -0.387186
     62          1           0       -2.410911    2.929630   -0.661077
     63          1           0       -2.237892    3.562065    0.994410
     64          6           0        0.073969    4.840515    0.586783
     65          1           0       -0.237597    4.720925    1.621522
     66          1           0        1.157609    4.801332    0.511706
     67          1           0       -0.293984    5.784589    0.192184
     68          6           0       -0.172320    3.898944   -1.647403
     69          1           0        0.905146    3.978100   -1.757068
     70          1           0       -0.542807    3.029575   -2.189850
     71          1           0       -0.652290    4.808491   -2.000780
     72          7           0       -1.393516   -3.028118   -0.495190
     73          7           0       -0.505138    3.728553   -0.207203
     74          6           0       -3.214730    0.529526    0.192113
     75          8           0       -2.131822    0.484500    0.886930
     76          8           0       -4.348921    0.324541    0.751275
     77          8           0       -3.143954    0.777819   -1.063783
     78          8           0       -1.070890    0.893430   -2.636328
     79          1           0       -1.486111    0.807767   -3.494244
     80          1           0       -1.828703    0.831451   -1.987109
     81          8           0       -5.651489   -2.016122   -0.131393
     82          1           0       -5.240263   -1.227138    0.263182
     83          1           0       -6.601196   -1.825113   -0.092438
     84          8           0       -1.801286   -1.399706    2.769521
     85          1           0       -2.512275   -1.208027    3.389913
     86          1           0       -1.920357   -0.680990    2.112915
     87          8           0       -6.433098    1.152396   -0.922327
     88          1           0       -6.112404    0.788927   -1.756222
     89          1           0       -5.689981    0.978630   -0.310124
     90          8           0       -4.802064   -0.754137   -2.607696
     91          1           0       -5.213580   -1.312945   -1.932006
     92          1           0       -4.219422   -0.165292   -2.089184
     93          8           0       -2.054195    2.362444    2.854165
     94          1           0       -2.709393    2.075188    3.496765
[...]
 Alpha virt. eigenvalues --    2.69825   2.71983   2.73364   2.74261   2.75360
 Alpha virt. eigenvalues --    2.75856   2.77413   2.78836   2.83633   2.84439
 Alpha virt. eigenvalues --    2.85882   2.86883   2.87157   2.87971   2.88754
 Alpha virt. eigenvalues --    2.89914   2.90748   2.92568   2.93131   2.93459
 Alpha virt. eigenvalues --    2.93903   2.94362   2.95274   2.95602   2.96419
 Alpha virt. eigenvalues --    2.97395   2.97479   2.98320   2.99266   2.99876
 Alpha virt. eigenvalues --    3.00423   3.00779   3.01901   3.02517   3.02946
 Alpha virt. eigenvalues --    3.03665   3.03833   3.04717   3.05168   3.05718
 Alpha virt. eigenvalues --    3.06115   3.06494   3.07004   3.07799   3.08361
 Alpha virt. eigenvalues --    3.08863   3.10943   3.11158   3.11599   3.11685
 Alpha virt. eigenvalues --    3.12599   3.14156   3.14543   3.15466   3.15992
 Alpha virt. eigenvalues --    3.16522   3.17101   3.17741   3.18613   3.19245
 Alpha virt. eigenvalues --    3.19525   3.19938   3.20805   3.21100   3.21654
 Alpha virt. eigenvalues --    3.21962   3.22224   3.22917   3.23179   3.24161
 Alpha virt. eigenvalues --    3.24630   3.24858   3.25320   3.26076   3.26767
 Alpha virt. eigenvalues --    3.26911   3.27549   3.28139   3.28927   3.29080
 Alpha virt. eigenvalues --    3.29789   3.30081   3.30778   3.31150   3.31559
 Alpha virt. eigenvalues --    3.31668   3.32803   3.33188   3.33641   3.34045
 Alpha virt. eigenvalues --    3.34542   3.35035   3.35583   3.36096   3.36210
 Alpha virt. eigenvalues --    3.37082   3.37310   3.38047   3.38094   3.38605
 Alpha virt. eigenvalues --    3.38719   3.39427   3.40037   3.40369   3.41049
 Alpha virt. eigenvalues --    3.41479   3.41854   3.42310   3.42563   3.42931
 Alpha virt. eigenvalues --    3.43157   3.43809   3.44463   3.44538   3.44862
 Alpha virt. eigenvalues --    3.45570   3.46300   3.46626   3.46909   3.47388
 Alpha virt. eigenvalues --    3.47676   3.48302   3.48822   3.48999   3.49146
 Alpha virt. eigenvalues --    3.49869   3.50601   3.51070   3.51237   3.51614
 Alpha virt. eigenvalues --    3.51788   3.52262   3.52661   3.53112   3.53603
 Alpha virt. eigenvalues --    3.53838   3.53987   3.54499   3.54928   3.55406
 Alpha virt. eigenvalues --    3.55626   3.56709   3.56967   3.57252   3.57733
 Alpha virt. eigenvalues --    3.57832   3.58722   3.59203   3.59572   3.60386
 Alpha virt. eigenvalues --    3.60657   3.60923   3.61542   3.61677   3.62083
 Alpha virt. eigenvalues --    3.62349   3.62948   3.63311   3.63494   3.63981
 Alpha virt. eigenvalues --    3.64252   3.64699   3.65053   3.65254   3.65966
 Alpha virt. eigenvalues --    3.66324   3.66766   3.67313   3.67622   3.68222
 Alpha virt. eigenvalues --    3.68699   3.69166   3.69345   3.70044   3.70189
 Alpha virt. eigenvalues --    3.70686   3.70990   3.71278   3.71463   3.72060
 Alpha virt. eigenvalues --    3.72317   3.72568   3.72883   3.72971   3.73586
 Alpha virt. eigenvalues --    3.73979   3.74279   3.74801   3.75126   3.75612
 Alpha virt. eigenvalues --    3.76032   3.76528   3.76805   3.77260   3.77757
 Alpha virt. eigenvalues --    3.78345   3.78489   3.79325   3.79583   3.79709
 Alpha virt. eigenvalues --    3.80676   3.80885   3.81156   3.81702   3.81946
 Alpha virt. eigenvalues --    3.81986   3.82727   3.83484   3.83680   3.83982
 Alpha virt. eigenvalues --    3.84284   3.85127   3.85487   3.85691   3.86077
 Alpha virt. eigenvalues --    3.86766   3.86979   3.87347   3.87508   3.88151
 Alpha virt. eigenvalues --    3.88509   3.88815   3.89158   3.89475   3.90221
 Alpha virt. eigenvalues --    3.90920   3.91265   3.91504   3.92100   3.93084
 Alpha virt. eigenvalues --    3.93327   3.93563   3.93673   3.93863   3.94233
 Alpha virt. eigenvalues --    3.94384   3.94581   3.95153   3.95489   3.95898
 Alpha virt. eigenvalues --    3.96279   3.96991   3.97131   3.97557   3.98049
 Alpha virt. eigenvalues --    3.98464   3.98874   3.99541   4.00110   4.00126
 Alpha virt. eigenvalues --    4.00551   4.00629   4.00958   4.01589   4.01752
 Alpha virt. eigenvalues --    4.01825   4.02090   4.02560   4.02890   4.03843
 Alpha virt. eigenvalues --    4.04325   4.04455   4.04824   4.05295   4.05527
 Alpha virt. eigenvalues --    4.05863   4.05889   4.06046   4.06644   4.07233
 Alpha virt. eigenvalues --    4.08034   4.08188   4.08313   4.09047   4.09202
 Alpha virt. eigenvalues --    4.09669   4.09949   4.10217   4.10345   4.10678
 Alpha virt. eigenvalues --    4.11004   4.11254   4.11573   4.12055   4.12113
 Alpha virt. eigenvalues --    4.12650   4.12771   4.13173   4.13222   4.13820
 Alpha virt. eigenvalues --    4.14065   4.14425   4.14796   4.15156   4.15569
 Alpha virt. eigenvalues --    4.15929   4.16371   4.16400   4.16612   4.16797
 Alpha virt. eigenvalues --    4.17703   4.17992   4.18432   4.18563   4.18764
 Alpha virt. eigenvalues --    4.19152   4.19538   4.19817   4.19986   4.20605
 Alpha virt. eigenvalues --    4.20857   4.21142   4.21298   4.21603   4.21782
 Alpha virt. eigenvalues --    4.22461   4.22738   4.22954   4.23146   4.23951
 Alpha virt. eigenvalues --    4.24164   4.24587   4.24912   4.25318   4.25586
 Alpha virt. eigenvalues --    4.26347   4.26590   4.26812   4.27036   4.27324
 Alpha virt. eigenvalues --    4.27477   4.27662   4.28076   4.28392   4.28492
 Alpha virt. eigenvalues --    4.29088   4.29258   4.29729   4.30053   4.30553
 Alpha virt. eigenvalues --    4.30816   4.31048   4.31256   4.31718   4.32348
 Alpha virt. eigenvalues --    4.32485   4.32937   4.33288   4.33602   4.33842
 Alpha virt. eigenvalues --    4.34560   4.35259   4.35400   4.35685   4.36174
 Alpha virt. eigenvalues --    4.36602   4.36720   4.36859   4.37026   4.37509
 Alpha virt. eigenvalues --    4.37941   4.38502   4.38826   4.39314   4.39649
 Alpha virt. eigenvalues --    4.40004   4.40229   4.41008   4.41630   4.42162
 Alpha virt. eigenvalues --    4.42431   4.42584   4.43241   4.43523   4.43900
 Alpha virt. eigenvalues --    4.44224   4.44850   4.45202   4.45599   4.45829
 Alpha virt. eigenvalues --    4.45900   4.46269   4.46906   4.47491   4.47594
 Alpha virt. eigenvalues --    4.48260   4.48920   4.49072   4.49685   4.50145
 Alpha virt. eigenvalues --    4.50476   4.50655   4.50886   4.51608   4.52634
 Alpha virt. eigenvalues --    4.53389   4.54244   4.54811   4.55456   4.56439
 Alpha virt. eigenvalues --    4.56648   4.57871   4.58851   4.59269   4.59414
 Alpha virt. eigenvalues --    4.61040   4.61995   4.62553   4.63338   4.63950
 Alpha virt. eigenvalues --    4.64199   4.65570   4.66457   4.66577   4.66928
 Alpha virt. eigenvalues --    4.67242   4.68238   4.68487   4.69286   4.70195
 Alpha virt. eigenvalues --    4.70978   4.71034   4.72821   4.74040   4.75629
 Alpha virt. eigenvalues --    4.76296   4.76986   4.77398   4.79570   4.82291
 Alpha virt. eigenvalues --    4.83080   4.83497   4.85942   4.87208   4.97961
 Alpha virt. eigenvalues --    5.00224   5.01816   5.02173   5.02992   5.03655
 Alpha virt. eigenvalues --    5.03908   5.04370   5.04629   5.05401   5.07017
 Alpha virt. eigenvalues --    5.11837   5.12432   5.12904   5.13153   5.14072
 Alpha virt. eigenvalues --    5.14496   5.15623   5.15813   5.15933   5.16779
 Alpha virt. eigenvalues --    5.17203   5.17410   5.17880   5.18282   5.18820
 Alpha virt. eigenvalues --    5.20078   5.20427   5.20711   5.21716   5.22389
 Alpha virt. eigenvalues --    5.22607   5.23016   5.24342   5.25544   5.26325
 Alpha virt. eigenvalues --    5.27154   5.28824   5.30221   5.32439   5.33326
 Alpha virt. eigenvalues --    5.34014   5.34158   5.34986   5.35440   5.37000
 Alpha virt. eigenvalues --    5.37833   5.39697   5.42266   5.43912   5.44672
 Alpha virt. eigenvalues --    5.46272   5.46637   5.46925   5.47343   5.48710
 Alpha virt. eigenvalues --    5.48753   5.52542   5.70841   5.71414   5.74688
 Alpha virt. eigenvalues --    5.74971   5.75470   5.77469   5.79606   5.80349
 Alpha virt. eigenvalues --    5.82320   5.84003   5.84385   5.86194   5.87002
 Alpha virt. eigenvalues --    5.88259   5.88791   5.93678   5.95019   5.95942
 Alpha virt. eigenvalues --    5.99843   6.24141   6.26114   6.33836   6.34321
 Alpha virt. eigenvalues --    6.34684   6.35088   6.36885   6.37805   6.41231
 Alpha virt. eigenvalues --    6.41822   7.00173   7.00616   7.02093   7.02701
 Alpha virt. eigenvalues --    7.05097   7.05757   7.05892   7.06399   7.06987
 Alpha virt. eigenvalues --    7.07253   7.09273   7.09868   7.11008   7.12156
 Alpha virt. eigenvalues --    7.13533   7.13855   7.15274   7.15618   7.16353
 Alpha virt. eigenvalues --    7.18800   7.20478   7.21516   7.24509   7.26213
 Alpha virt. eigenvalues --    7.26740   7.27300   7.27856   7.29438   7.30197
 Alpha virt. eigenvalues --    7.32280   7.34680   7.38055   7.41272   7.43313
 Alpha virt. eigenvalues --    7.44390   7.48171   7.49358   7.50629   7.54925
 Alpha virt. eigenvalues --    7.56147   7.57530   7.58686   7.60339   7.63729
 Alpha virt. eigenvalues --    7.64667   7.66760   7.68465   7.71493   7.73755
 Alpha virt. eigenvalues --    7.75394   7.76887   7.78191   7.80544   7.81423
 Alpha virt. eigenvalues --    7.84580  23.90074  23.92860  24.03342  24.04129
 Alpha virt. eigenvalues --   24.08513  24.10270  24.11671  24.13378  24.16044
 Alpha virt. eigenvalues --   24.17783  24.18137  24.18580  24.19408  24.20451
 Alpha virt. eigenvalues --   24.20838  24.21992  24.23022  24.23255  24.25474
 Alpha virt. eigenvalues --   24.32356  24.32645  24.33551  24.34858  24.35529
 Alpha virt. eigenvalues --   24.38406  24.43866  24.45769  24.47636  35.63350
 Alpha virt. eigenvalues --   35.64936  50.11453  50.14309  50.17837  50.18487
 Alpha virt. eigenvalues --   50.18793  50.19974  50.20488  50.21891  50.33390
 Alpha virt. eigenvalues --   50.33881  50.36666
          Condensed to atoms (all electrons):
 Mulliken charges:
               1
     1  C   -0.467462
     2  C   -0.216075
     3  H    0.124110
     4  H    0.123538
     5  H    0.112369
     6  C    0.066688
     7  H    0.128920
     8  H    0.116064
     9  C   -0.548408
    10  H    0.120649
    11  H    0.143236
    12  H    0.123678
    13  C    0.186141
    14  C   -0.222841
    15  H    0.107539
    16  H    0.125858
    17  H    0.122359
    18  C   -0.441120
    19  H    0.124183
    20  H    0.114536
    21  H    0.123307
    22  C    0.534946
    23  C   -0.245684
    24  C   -0.444374
    25  C   -0.294881
    26  H    0.126851
    27  C   -0.193385
    28  H    0.135063
    29  C   -0.012241
    30  H    0.171074
    31  H    0.144149
    32  C    0.333138
    33  C   -0.314512
    34  C   -0.376463
    35  C   -0.336328
    36  H    0.133679
    37  C   -0.339867
    38  H    0.138912
    39  C    0.063862
    40  H    0.144539
    41  H    0.193869
    42  C   -0.437446
    43  H    0.170659
    44  H    0.207975
    45  C   -0.949359
    46  H    0.255329
    47  H    0.241475
    48  C   -0.284671
    49  H    0.193005
    50  H    0.222103
    51  H    0.197814
    52  C   -0.288329
    53  H    0.169227
    54  H    0.246365
    55  H    0.160674
    56  C   -0.150054
    57  H    0.176424
    58  H    0.177472
    59  H    0.161438
    60  C   -0.160820
    61  H    0.164967
    62  H    0.200080
    63  H    0.227672
    64  C   -0.154048
    65  H    0.194643
    66  H    0.175415
    67  H    0.153652
    68  C   -0.252030
    69  H    0.171021
    70  H    0.232064
    71  H    0.160890
    72  N    0.086912
    73  N    0.127531
    74  C    0.772654
    75  O   -0.875781
    76  O   -0.802184
    77  O   -0.707588
    78  O   -0.671825
    79  H    0.280205
    80  H    0.445526
    81  O   -0.732104
    82  H    0.363392
    83  H    0.408382
    84  O   -0.682045
    85  H    0.331016
    86  H    0.370460
    87  O   -0.651448
    88  H    0.269433
    89  H    0.424606
    90  O   -0.672964
    91  H    0.322001
    92  H    0.367778
    93  O   -0.648522
    94  H    0.335598
    95  H    0.354114
    96  O   -0.693418
    97  H    0.259788
    98  H    0.432517
    99  O   -0.676311
   100  H    0.405987
   101  H    0.243066
 Sum of Mulliken charges =  -0.00000
 Mulliken charges with hydrogens summed into heavy atoms:
               1
     1  C   -0.107445
     2  C    0.028910
     6  C    0.187337
     9  C   -0.281495
    13  C    0.293681
    14  C    0.025376
    18  C   -0.079093
    22  C    0.534946
    23  C   -0.118833
    24  C   -0.309311
    25  C   -0.123806
    27  C   -0.049236
    29  C   -0.012241
    32  C    0.333138
    33  C   -0.180833
    34  C   -0.237551
    35  C   -0.191789
    37  C   -0.145998
    39  C    0.063862
    42  C   -0.058812
    45  C   -0.452556
    48  C    0.328252
    52  C    0.287937
    56  C    0.365279
    60  C    0.431900
    64  C    0.369662
    68  C    0.311944
    72  N    0.086912
    73  N    0.127531
    74  C    0.772654
    75  O   -0.875781
    76  O   -0.802184
    77  O   -0.707588
    78  O    0.053906
    81  O    0.039670
    84  O    0.019431
    87  O    0.042591
    90  O    0.016815
    93  O    0.041190
    96  O   -0.001112
    99  O   -0.027259
 Electronic spatial extent (au):  <R**2>=          27038.0669
 Charge=             -0.0000 electrons
 Dipole moment (field-independent basis, Debye):
    X=             14.6211    Y=              1.1894    Z=             -1.5093  Tot=             14.7468
 Quadrupole moment (field-independent basis, Debye-Ang):
   XX=           -309.6975   YY=           -203.3267   ZZ=           -265.2740
   XY=             -2.6004   XZ=            -19.5872   YZ=              1.7216
 Traceless Quadrupole moment (field-independent basis, Debye-Ang):
   XX=            -50.2648   YY=             56.1060   ZZ=             -5.8412
   XY=             -2.6004   XZ=            -19.5872   YZ=              1.7216
 Octapole moment (field-independent basis, Debye-Ang**2):
  XXX=            343.4431  YYY=             91.9196  ZZZ=             -8.5969  XYY=            -70.1400
  XXY=             24.3838  XXZ=            211.9479  XZZ=            -24.9077  YZZ=             -1.2545
  YYZ=            -38.2125  XYZ=             21.8974
 Hexadecapole moment (field-independent basis, Debye-Ang**3):
 XXXX=         -24708.5290 YYYY=          -7829.4559 ZZZZ=          -3141.3016 XXXY=           -423.2551
 XXXZ=          -1580.9157 YYYX=             68.7113 YYYZ=             29.6841 ZZZX=           -220.0791
 ZZZY=            -21.7122 XXYY=          -5560.7469 XXZZ=          -4282.7493 YYZZ=          -1999.4463
 XXYZ=            -33.5590 YYXZ=             76.7247 ZZXY=            -31.2932
 N-N= 5.869440103645D+03 E-N=-1.651025637988D+04  KE= 2.032395259437D+03
 Leave Link  601 at Sat Mar 16 09:43:15 2024, MaxMem=  1073741824 cpu:              20.0 elap:               1.4
 (Enter /packages/apps/gaussian/g16/g16/l9999.exe)
 1\1\GINC-C021\FOpt\RwB97XD\6-311+G(2d,2p)\C28H60N2O11\MDTURNE9\16-Mar-
 2024\0\\#p opt=calcfc wb97xd/6-311+g(2d,2p) geom=connectivity\\8w carb
 onate ropt freq\\0,1\C,5.1326216301,-4.3836443739,0.7846664412\C,5.539
 5663607,-2.9762492696,1.203923702\H,5.4789862858,-5.1215459864,1.50795
 86108\H,4.0490934586,-4.4751576895,0.7041802053\H,5.5605916931,-4.6408
 628813,-0.1863973189\C,5.134438127,-1.8878995086,0.196120984\H,5.10134
 60509,-2.7406602075,2.1776876141\H,6.6232286242,-2.9343459187,1.337460
 7881\C,5.7168806319,-0.5306570142,0.6252787281\H,5.5964059854,-2.14479
 97717,-0.7629911757\H,5.3333210366,-0.2595967549,1.6129911405\H,6.7930
 370756,-0.673860965,0.7514717828\C,5.5013538194,0.6444448232,-0.349012
 9184\C,6.5917153753,1.7102222798,-0.158278572\H,5.6032611977,0.2564196
 299,-1.3678660211\H,6.5635338855,2.0782117396,0.8711997142\H,7.5641464
 283,1.2275907233,-0.280263693\C,6.4796903508,2.8797926807,-1.128601232
 9\H,7.2998429967,3.5838479911,-0.9890442438\H,6.5101230758,2.531271895
 2,-2.1628811735\H,5.5435890144,3.4214646492,-0.9901256483\C,4.10965456
 3,1.2317734238,-0.2261143245\C,3.1838716473,1.0971390157,-1.2537762535
 \C,3.6997660357,1.8602073197,0.9466071368\C,1.8694288753,1.4998493215,
 -1.0949657084\H,3.478864525,0.604112689,-2.1706158568\C,2.3934322734,2
 .2927824056,1.1022414347\H,4.3956639436,1.9806428618,1.7674339002\C,1.
 4572641201,2.1032252366,0.0900228728\H,1.1409704762,1.2969017783,-1.87
 0764331\H,2.0835827382,2.7346672502,2.0416411046\C,3.635368676,-1.8783
 937751,-0.0239432386\C,3.0992123561,-2.214320752,-1.260958297\C,2.7545
 415801,-1.5303097677,0.9984652537\C,1.7302092018,-2.1772802608,-1.4827
 93528\H,3.7638515129,-2.4797053983,-2.0739584488\C,1.3880744889,-1.499
 7126278,0.786086426\H,3.1406299602,-1.2503904451,1.9701646962\C,0.8562
 030256,-1.8261897378,-0.461303057\H,1.3445238573,-2.3920877599,-2.4719
 235488\H,0.7208986005,-1.2079100274,1.5889442806\C,-0.6226892002,-1.72
 57461436,-0.6853848323\H,-1.0681661381,-1.0076328939,0.0024688718\H,-0
 .8511413023,-1.3837172583,-1.6932980926\C,0.0079817599,2.3983439002,0.
 3262854067\H,-0.6276501189,1.6368435161,-0.1140046266\H,-0.2188000681,
 2.4155110026,1.3894906926\C,-2.8504893153,-2.6811530601,-0.4463381304\
 H,-3.4340605985,-3.596442547,-0.4203605456\H,-3.0322617185,-2.10816790
 84,0.457363276\H,-3.110864917,-2.0985179903,-1.3265142625\C,-1.0233798
 925,-3.7047437028,0.7791158371\H,0.0205197109,-4.0005896736,0.73329299
 42\H,-1.2019844936,-3.0150995533,1.6050261653\H,-1.6579421001,-4.58182
 69998,0.8837593748\C,-1.1483305955,-3.9420777411,-1.6368613178\H,-1.47
 06714442,-3.4541572173,-2.5531498123\H,-0.0886622288,-4.1768421096,-1.
 6847982888\H,-1.7225627463,-4.8522687152,-1.4839100767\C,-1.9945849753
 ,3.7335018085,-0.0546128955\H,-2.3649489332,4.6999598264,-0.3893489663
 \H,-2.4092050518,2.9304192376,-0.6621404009\H,-2.2372750203,3.56390476
 75,0.9930852685\C,0.0751564828,4.8413141033,0.5868263749\H,-0.23715380
 11,4.7220008507,1.6213801244\H,1.1588417229,4.8020427223,0.512486141\H
 ,-0.2924735256,5.7853203972,0.1917627172\C,-0.1697208687,3.8992398463,
 -1.647315983\H,0.9078141635,3.9782070524,-1.7563686734\H,-0.540230566,
 3.0298380142,-2.189686286\H,-0.6493199661,4.8088322681,-2.0011090282\N
 ,-1.3939468433,-3.0264083028,-0.4961198887\N,-0.5034883866,3.729188625
 4,-0.2072880518\C,-3.2189309833,0.5311542832,0.19018512\O,-2.134655443
 3,0.4885209516,0.8831043998\O,-4.3515031933,0.3229947443,0.7513240591\
 O,-3.1507641622,0.7799919858,-1.0657089429\O,-1.0734870515,0.894939337
 ,-2.6318287941\H,-1.4859593572,0.8111750518,-3.4912479637\H,-1.8337481
 957,0.8334152926,-1.9851004173\O,-5.6520799513,-2.0199568662,-0.127493
 2342\H,-5.2420569931,-1.2300254137,0.2663430875\H,-6.6019930904,-1.829
 606025,-0.0911484767\O,-1.7943802469,-1.3940169323,2.7648322751\H,-2.5
 035657961,-1.2036449678,3.3875871196\H,-1.9172226622,-0.6757766906,2.1
 083457042\O,-6.4397470807,1.1467859676,-0.9208747014\H,-6.1191938766,0
 .7836205255,-1.7549518438\H,-5.6957911552,0.9745943388,-0.3093920068\O
 ,-4.8075140003,-0.7571203607,-2.6056451534\H,-5.2166270423,-1.31551518
 17,-1.9282326915\H,-4.2248406451,-0.1665068654,-2.0892483976\O,-2.0537
 577211,2.3643129447,2.8517647307\H,-2.7071669169,2.0751908245,3.495290
 2313\H,-2.0993380702,1.645645618,2.1881742994\O,-4.1020713182,0.274578
 204,3.4535622611\H,-4.984756676,0.1770684105,3.8067404039\H,-4.2136494
 13,0.2891239766,2.4713710049\O,-8.2075121814,-0.8002270947,-0.18760648
 6\H,-7.6721968773,-0.0201566862,-0.4494119729\H,-8.6638924838,-0.54523
 73153,0.6122420737\\Version=ES64L-G16RevA.03\State=1-A\HF=-2040.294120
 8\RMSD=3.732e-09\RMSF=3.521e-07\Dipole=5.7523199,0.4704066,-0.592297\Q
 uadrupole=-37.3621937,41.7111252,-4.3489315,-1.9606524,-14.5714987,1.2
 874957\PG=C01 [X(C28H60N2O11)]\\@


 THE REASON MAN'S BEST FRIEND IS A DOG IS BECAUSE
 HE WAGS HIS TAIL INSTEAD OF HIS TONGUE.
 Job cpu time:      36 days 12 hours 35 minutes 55.3 seconds.
 Elapsed time:       1 days 20 hours 24 minutes  0.7 seconds.
 File lengths (MBytes):  RWF=  64054 Int=      0 D2E=      0 Chk=    217 Scr=      1
 Normal termination of Gaussian 16 at Sat Mar 16 09:43:16 2024.
