 Entering Gaussian System, Link 0=g16
 Input=dry.gjf
 Output=dry.log
 Initial command:
 /packages/apps/gaussian/g16/g16/l1.exe "/scratch/mdturne9/3-5-methyl/geo/Gau-494737.inp" -scrdir="/scratch/mdturne9/3-5-methyl/geo/"
 Entering Link 1 = /packages/apps/gaussian/g16/g16/l1.exe PID=    494738.
  
 Copyright (c) 1988,1990,1992,1993,1995,1998,2003,2009,2016,
            Gaussian, Inc.  All Rights Reserved.
  
 This is part of the Gaussian(R) 16 program.  It is based on
 the Gaussian(R) 09 system (copyright 2009, Gaussian, Inc.),
 the Gaussian(R) 03 system (copyright 2003, Gaussian, Inc.),
 the Gaussian(R) 98 system (copyright 1998, Gaussian, Inc.),
 the Gaussian(R) 94 system (copyright 1995, Gaussian, Inc.),
 the Gaussian 92(TM) system (copyright 1992, Gaussian, Inc.),
 the Gaussian 90(TM) system (copyright 1990, Gaussian, Inc.),
 the Gaussian 88(TM) system (copyright 1988, Gaussian, Inc.),
 the Gaussian 86(TM) system (copyright 1986, Carnegie Mellon
 University), and the Gaussian 82(TM) system (copyright 1983,
 Carnegie Mellon University). Gaussian is a federally registered
 trademark of Gaussian, Inc.
  
 This software contains proprietary and confidential information,
 including trade secrets, belonging to Gaussian, Inc.
  
 This software is provided under written license and may be
 used, copied, transmitted, or stored only in accord with that
 written license.
  
 The following legend is applicable only to US Government
 contracts under FAR:
  
                    RESTRICTED RIGHTS LEGEND
  
 Use, reproduction and disclosure by the US Government is
 subject to restrictions as set forth in subparagraphs (a)
 and (c) of the Commercial Computer Software - Restricted
 Rights clause in FAR 52.227-19.
  
 Gaussian, Inc.
 340 Quinnipiac St., Bldg. 40, Wallingford CT 06492
  
  
 ---------------------------------------------------------------
 Warning -- This program may not be used in any manner that
 competes with the business of Gaussian, Inc. or will provide
 assistance to any competitor of Gaussian, Inc.  The licensee
 of this program is prohibited from giving any competitor of
 Gaussian, Inc. access to this program.  By using this program,
 the user acknowledges that Gaussian, Inc. is engaged in the
 business of creating and licensing software in the field of
 computational chemistry and represents and warrants to the
 licensee that it is not a competitor of Gaussian, Inc. and that
 it will not use this program in any manner prohibited above.
 ---------------------------------------------------------------
  

 Cite this work as:
 Gaussian 16, Revision A.03,
 M. J. Frisch, G. W. Trucks, H. B. Schlegel, G. E. Scuseria, 
 M. A. Robb, J. R. Cheeseman, G. Scalmani, V. Barone, 
 G. A. Petersson, H. Nakatsuji, X. Li, M. Caricato, A. V. Marenich, 
 J. Bloino, B. G. Janesko, R. Gomperts, B. Mennucci, H. P. Hratchian, 
 J. V. Ortiz, A. F. Izmaylov, J. L. Sonnenberg, D. Williams-Young, 
 F. Ding, F. Lipparini, F. Egidi, J. Goings, B. Peng, A. Petrone, 
 T. Henderson, D. Ranasinghe, V. G. Zakrzewski, J. Gao, N. Rega, 
 G. Zheng, W. Liang, M. Hada, M. Ehara, K. Toyota, R. Fukuda, 
 J. Hasegawa, M. Ishida, T. Nakajima, Y. Honda, O. Kitao, H. Nakai, 
 T. Vreven, K. Throssell, J. A. Montgomery, Jr., J. E. Peralta, 
 F. Ogliaro, M. J. Bearpark, J. J. Heyd, E. N. Brothers, K. N. Kudin, 
 V. N. Staroverov, T. A. Keith, R. Kobayashi, J. Normand, 
 K. Raghavachari, A. P. Rendell, J. C. Burant, S. S. Iyengar, 
 J. Tomasi, M. Cossi, J. M. Millam, M. Klene, C. Adamo, R. Cammi, 
 J. W. Ochterski, R. L. Martin, K. Morokuma, O. Farkas, 
 J. B. Foresman, and D. J. Fox, Gaussian, Inc., Wallingford CT, 2016.
 
 ******************************************
 Gaussian 16:  ES64L-G16RevA.03 25-Dec-2016
                14-Mar-2024 
 ******************************************
 %nprocshared=20
 Will use up to   20 processors via shared memory.
 %mem=8GB
 %chk=dry.chk
 -----------------------------------
 #p opt=calcfc wb97xd/6-311+g(2d,2p)
 -----------------------------------
 1/10=4,18=20,19=15,26=3,38=1/1,3;
 2/9=110,12=2,17=6,18=5,40=1/2;
 3/5=4,6=6,7=212,11=2,25=1,30=1,71=2,74=-58,140=1/1,2,3;
 4//1;
 5/5=2,38=5/2;
 8/6=4,10=90,11=11/1;
 11/6=1,8=1,9=11,15=111,16=1/1,2,10;
 10/6=1,13=1/2;
 6/7=2,8=2,9=2,10=2,28=1/1;
 7/10=1,18=20,25=1/1,2,3,16;
 1/10=4,18=20,19=15,26=3/3(2);
 2/9=110/2;
 99//99;
 2/9=110/2;
 3/5=4,6=6,7=212,11=2,25=1,30=1,71=1,74=-58/1,2,3;
 4/5=5,16=3,69=1/1;
 5/5=2,38=5/2;
 7//1,2,3,16;
 1/18=20,19=15,26=3/3(-5);
 2/9=110/2;
 6/7=2,8=2,9=2,10=2,19=2,28=1/1;
 99/9=1/99;
 Leave Link    1 at Thu Mar 14 13:11:10 2024, MaxMem=  1073741824 cpu:               3.0 elap:               0.2
 (Enter /packages/apps/gaussian/g16/g16/l101.exe)
 -----------------------
 no water double bi high
 -----------------------
 Symbolic Z-matrix:
 Charge =  0 Multiplicity = 1
 C                     4.89628  -3.77898  -0.64184 
 C                     5.20945  -2.50573   0.13491 
 H                     5.54835  -4.59611  -0.33321 
 H                     3.86418  -4.09387  -0.48613 
 H                     5.03674  -3.62496  -1.71359 
 C                     4.36509  -1.29725  -0.29822 
 H                     5.06899  -2.6812    1.20526 
 H                     6.26397  -2.25068   0.00593 
 C                     4.80444  -0.03783   0.47434 
 H                     4.57284  -1.12108  -1.35886 
 H                     4.46352  -0.11442   1.51092 
 H                     5.89663  -0.04739   0.52048 
 C                     4.39568   1.32834  -0.10925 
 C                     5.11869   2.45381   0.65079 
 H                     4.74561   1.35702  -1.14667 
 H                     4.79866   2.43551   1.69659 
 H                     6.18959   2.23633   0.653 
 C                     4.88369   3.84143   0.06657 
 H                     5.44938   4.59565   0.61356 
 H                     5.19587   3.88251  -0.97901 
 H                     3.82932   4.11547   0.10788 
 C                     2.8986    1.56378  -0.13272 
 C                     2.23963   1.90411  -1.30851 
 C                     2.13734   1.4083    1.02237 
 C                     0.85604   2.00625  -1.35052 
 H                     2.81061   2.03225  -2.21997 
 C                     0.75929   1.50012   0.98772 
 H                     2.61984   1.14286   1.95408 
 C                     0.09882   1.78307  -0.20658 
 H                     0.35818   2.18818  -2.29504 
 H                     0.17476   1.28262   1.87366 
 C                     2.87889  -1.57075  -0.17341 
 C                     2.04061  -1.40433  -1.26808 
 C                     2.30198  -1.91851   1.04633 
 C                     0.66536  -1.49577  -1.14108 
 H                     2.46625  -1.12913  -2.22468 
 C                     0.92671  -2.01756   1.18104 
 H                     2.92743  -2.05436   1.92003 
 C                     0.09043  -1.78638   0.09194 
 H                     0.02213  -1.27168  -1.9836 
 H                     0.49399  -2.20593   2.15594 
 C                    -1.39571  -1.66749   0.2516 
 H                    -1.66255  -1.31206   1.2449 
 H                    -1.77914  -0.9941   -0.50896 
 C                    -1.39502   1.66375  -0.26012 
 H                    -1.73239   1.30793  -1.23168 
 H                    -1.72298   0.99031   0.52601 
 C                    -3.6404   -2.56105   0.0325 
 H                    -4.23165  -3.46996  -0.05805 
 H                    -3.85832  -2.05382   0.97068 
 H                    -3.81348  -1.91932  -0.82829 
 C                    -1.94729  -3.87848   1.1736 
 H                    -0.89116  -4.13415   1.18884 
 H                    -2.23557  -3.37236   2.09359 
 H                    -2.54367  -4.77561   1.02274 
 C                    -1.8583   -3.57663  -1.25884 
 H                    -2.01961  -2.83359  -2.0399 
 H                    -0.82005  -3.89443  -1.24067 
 H                    -2.51104  -4.43512  -1.40017 
 C                    -3.61791   2.55798   0.12264 
 H                    -4.2005    3.46726   0.2557 
 H                    -3.90465   2.05012  -0.79647 
 H                    -3.72644   1.91734   0.99466 
 C                    -1.74636   3.57539   1.27786 
 H                    -1.8517    2.83422   2.07013 
 H                    -0.71209   3.89281   1.18399 
 H                    -2.38671   4.43458   1.46431 
 C                    -2.01275   3.87359  -1.14179 
 H                    -0.96033   4.12784  -1.23559 
 H                    -2.36928   3.36703  -2.03726 
 H                    -2.59524   4.77158  -0.9479 
 N                    -2.19516  -2.94461   0.0454 
 N                    -2.17737   2.94114   0.00275 
 C                    -3.25843   0.06467  -2.76497 
 O                    -2.24133  -0.59584  -2.49612 
 O                    -3.4165    1.30072  -2.78344 
 O                    -4.3817   -0.70187  -3.04636 
 H                    -5.07357  -0.06847  -3.24904 
 C                    -3.05154  -0.05862   2.88858 
 O                    -2.05633   0.59798   2.53946 
 O                    -3.21348  -1.29403   2.91627 
 O                    -4.14398   0.71204   3.26323 
 H                    -4.8203    0.08114   3.51916 
 
 Add virtual bond connecting atoms O80        and H47        Dist= 3.93D+00.
 Add virtual bond connecting atoms O81        and H50        Dist= 4.13D+00.
 Add virtual bond connecting atoms O75        and H44        Dist= 3.93D+00.
 Add virtual bond connecting atoms O76        and H62        Dist= 4.12D+00.
 ITRead=  0  0  0  0  0  0  0  0  0  0  0  0  0  0  0  0  0  0  0  0
 ITRead=  0  0  0  0  0  0  0  0  0  0  0  0  0  0  0  0  0  0  0  0
 ITRead=  0  0  0  0  0  0  0  0  0  0  0  0  0  0  0  0  0  0  0  0
 ITRead=  0  0  0  0  0  0  0  0  0  0  0  0  0  0  0  0  0  0  0  0
 ITRead=  0  0  0
 MicOpt= -1 -1 -1 -1 -1 -1 -1 -1 -1 -1 -1 -1 -1 -1 -1 -1 -1 -1 -1 -1
 MicOpt= -1 -1 -1 -1 -1 -1 -1 -1 -1 -1 -1 -1 -1 -1 -1 -1 -1 -1 -1 -1
 MicOpt= -1 -1 -1 -1 -1 -1 -1 -1 -1 -1 -1 -1 -1 -1 -1 -1 -1 -1 -1 -1
 MicOpt= -1 -1 -1 -1 -1 -1 -1 -1 -1 -1 -1 -1 -1 -1 -1 -1 -1 -1 -1 -1
 MicOpt= -1 -1 -1
 NAtoms=     83 NQM=       83 NQMF=       0 NMMI=      0 NMMIF=      0
                NMic=       0 NMicF=      0.
                    Isotopes and Nuclear Properties:
 (Nuclear quadrupole moments (NQMom) in fm**2, nuclear magnetic moments (NMagM)
  in nuclear magnetons)

  Atom         1           2           3           4           5           6           7           8           9          10
 IAtWgt=          12          12           1           1           1          12           1           1          12           1
 AtmWgt=  12.0000000  12.0000000   1.0078250   1.0078250   1.0078250  12.0000000   1.0078250   1.0078250  12.0000000   1.0078250
 NucSpn=           0           0           1           1           1           0           1           1           0           1
 AtZEff=  -0.0000000  -0.0000000  -0.0000000  -0.0000000  -0.0000000  -0.0000000  -0.0000000  -0.0000000  -0.0000000  -0.0000000
 NQMom=    0.0000000   0.0000000   0.0000000   0.0000000   0.0000000   0.0000000   0.0000000   0.0000000   0.0000000   0.0000000
 NMagM=    0.0000000   0.0000000   2.7928460   2.7928460   2.7928460   0.0000000   2.7928460   2.7928460   0.0000000   2.7928460
 AtZNuc=   6.0000000   6.0000000   1.0000000   1.0000000   1.0000000   6.0000000   1.0000000   1.0000000   6.0000000   1.0000000

  Atom        11          12          13          14          15          16          17          18          19          20
 IAtWgt=           1           1          12          12           1           1           1          12           1           1
 AtmWgt=   1.0078250   1.0078250  12.0000000  12.0000000   1.0078250   1.0078250   1.0078250  12.0000000   1.0078250   1.0078250
 NucSpn=           1           1           0           0           1           1           1           0           1           1
 AtZEff=  -0.0000000  -0.0000000  -0.0000000  -0.0000000  -0.0000000  -0.0000000  -0.0000000  -0.0000000  -0.0000000  -0.0000000
 NQMom=    0.0000000   0.0000000   0.0000000   0.0000000   0.0000000   0.0000000   0.0000000   0.0000000   0.0000000   0.0000000
 NMagM=    2.7928460   2.7928460   0.0000000   0.0000000   2.7928460   2.7928460   2.7928460   0.0000000   2.7928460   2.7928460
 AtZNuc=   1.0000000   1.0000000   6.0000000   6.0000000   1.0000000   1.0000000   1.0000000   6.0000000   1.0000000   1.0000000

  Atom        21          22          23          24          25          26          27          28          29          30
 IAtWgt=           1          12          12          12          12           1          12           1          12           1
 AtmWgt=   1.0078250  12.0000000  12.0000000  12.0000000  12.0000000   1.0078250  12.0000000   1.0078250  12.0000000   1.0078250
 NucSpn=           1           0           0           0           0           1           0           1           0           1
 AtZEff=  -0.0000000  -0.0000000  -0.0000000  -0.0000000  -0.0000000  -0.0000000  -0.0000000  -0.0000000  -0.0000000  -0.0000000
 NQMom=    0.0000000   0.0000000   0.0000000   0.0000000   0.0000000   0.0000000   0.0000000   0.0000000   0.0000000   0.0000000
 NMagM=    2.7928460   0.0000000   0.0000000   0.0000000   0.0000000   2.7928460   0.0000000   2.7928460   0.0000000   2.7928460
 AtZNuc=   1.0000000   6.0000000   6.0000000   6.0000000   6.0000000   1.0000000   6.0000000   1.0000000   6.0000000   1.0000000

  Atom        31          32          33          34          35          36          37          38          39          40
 IAtWgt=           1          12          12          12          12           1          12           1          12           1
 AtmWgt=   1.0078250  12.0000000  12.0000000  12.0000000  12.0000000   1.0078250  12.0000000   1.0078250  12.0000000   1.0078250
 NucSpn=           1           0           0           0           0           1           0           1           0           1
 AtZEff=  -0.0000000  -0.0000000  -0.0000000  -0.0000000  -0.0000000  -0.0000000  -0.0000000  -0.0000000  -0.0000000  -0.0000000
 NQMom=    0.0000000   0.0000000   0.0000000   0.0000000   0.0000000   0.0000000   0.0000000   0.0000000   0.0000000   0.0000000
 NMagM=    2.7928460   0.0000000   0.0000000   0.0000000   0.0000000   2.7928460   0.0000000   2.7928460   0.0000000   2.7928460
 AtZNuc=   1.0000000   6.0000000   6.0000000   6.0000000   6.0000000   1.0000000   6.0000000   1.0000000   6.0000000   1.0000000

  Atom        41          42          43          44          45          46          47          48          49          50
 IAtWgt=           1          12           1           1          12           1           1          12           1           1
 AtmWgt=   1.0078250  12.0000000   1.0078250   1.0078250  12.0000000   1.0078250   1.0078250  12.0000000   1.0078250   1.0078250
 NucSpn=           1           0           1           1           0           1           1           0           1           1
 AtZEff=  -0.0000000  -0.0000000  -0.0000000  -0.0000000  -0.0000000  -0.0000000  -0.0000000  -0.0000000  -0.0000000  -0.0000000
 NQMom=    0.0000000   0.0000000   0.0000000   0.0000000   0.0000000   0.0000000   0.0000000   0.0000000   0.0000000   0.0000000
 NMagM=    2.7928460   0.0000000   2.7928460   2.7928460   0.0000000   2.7928460   2.7928460   0.0000000   2.7928460   2.7928460
 AtZNuc=   1.0000000   6.0000000   1.0000000   1.0000000   6.0000000   1.0000000   1.0000000   6.0000000   1.0000000   1.0000000

  Atom        51          52          53          54          55          56          57          58          59          60
 IAtWgt=           1          12           1           1           1          12           1           1           1          12
 AtmWgt=   1.0078250  12.0000000   1.0078250   1.0078250   1.0078250  12.0000000   1.0078250   1.0078250   1.0078250  12.0000000
 NucSpn=           1           0           1           1           1           0           1           1           1           0
 AtZEff=  -0.0000000  -0.0000000  -0.0000000  -0.0000000  -0.0000000  -0.0000000  -0.0000000  -0.0000000  -0.0000000  -0.0000000
 NQMom=    0.0000000   0.0000000   0.0000000   0.0000000   0.0000000   0.0000000   0.0000000   0.0000000   0.0000000   0.0000000
 NMagM=    2.7928460   0.0000000   2.7928460   2.7928460   2.7928460   0.0000000   2.7928460   2.7928460   2.7928460   0.0000000
 AtZNuc=   1.0000000   6.0000000   1.0000000   1.0000000   1.0000000   6.0000000   1.0000000   1.0000000   1.0000000   6.0000000

  Atom        61          62          63          64          65          66          67          68          69          70
 IAtWgt=           1           1           1          12           1           1           1          12           1           1
 AtmWgt=   1.0078250   1.0078250   1.0078250  12.0000000   1.0078250   1.0078250   1.0078250  12.0000000   1.0078250   1.0078250
 NucSpn=           1           1           1           0           1           1           1           0           1           1
 AtZEff=  -0.0000000  -0.0000000  -0.0000000  -0.0000000  -0.0000000  -0.0000000  -0.0000000  -0.0000000  -0.0000000  -0.0000000
 NQMom=    0.0000000   0.0000000   0.0000000   0.0000000   0.0000000   0.0000000   0.0000000   0.0000000   0.0000000   0.0000000
 NMagM=    2.7928460   2.7928460   2.7928460   0.0000000   2.7928460   2.7928460   2.7928460   0.0000000   2.7928460   2.7928460
 AtZNuc=   1.0000000   1.0000000   1.0000000   6.0000000   1.0000000   1.0000000   1.0000000   6.0000000   1.0000000   1.0000000

  Atom        71          72          73          74          75          76          77          78          79          80
 IAtWgt=           1          14          14          12          16          16          16           1          12          16
 AtmWgt=   1.0078250  14.0030740  14.0030740  12.0000000  15.9949146  15.9949146  15.9949146   1.0078250  12.0000000  15.9949146
 NucSpn=           1           2           2           0           0           0           0           1           0           0
 AtZEff=  -0.0000000  -0.0000000  -0.0000000  -0.0000000  -0.0000000  -0.0000000  -0.0000000  -0.0000000  -0.0000000  -0.0000000
 NQMom=    0.0000000   2.0440000   2.0440000   0.0000000   0.0000000   0.0000000   0.0000000   0.0000000   0.0000000   0.0000000
 NMagM=    2.7928460   0.4037610   0.4037610   0.0000000   0.0000000   0.0000000   0.0000000   2.7928460   0.0000000   0.0000000
 AtZNuc=   1.0000000   7.0000000   7.0000000   6.0000000   8.0000000   8.0000000   8.0000000   1.0000000   6.0000000   8.0000000

  Atom        81          82          83
 IAtWgt=          16          16           1
 AtmWgt=  15.9949146  15.9949146   1.0078250
 NucSpn=           0           0           1
 AtZEff=  -0.0000000  -0.0000000  -0.0000000
 NQMom=    0.0000000   0.0000000   0.0000000
 NMagM=    0.0000000   0.0000000   2.7928460
 AtZNuc=   8.0000000   8.0000000   1.0000000
 Leave Link  101 at Thu Mar 14 13:11:10 2024, MaxMem=  1073741824 cpu:               3.4 elap:               0.3
 (Enter /packages/apps/gaussian/g16/g16/l103.exe)

 GradGradGradGradGradGradGradGradGradGradGradGradGradGradGradGradGradGrad
 Berny optimization.
 Initialization pass.
                           ----------------------------
                           !    Initial Parameters    !
                           ! (Angstroms and Degrees)  !
 --------------------------                            --------------------------
 ! Name  Definition              Value          Derivative Info.                !
 --------------------------------------------------------------------------------
 ! R1    R(1,2)                  1.524          calculate D2E/DX2 analytically  !
 ! R2    R(1,3)                  1.09           calculate D2E/DX2 analytically  !
 ! R3    R(1,4)                  1.0902         calculate D2E/DX2 analytically  !
 ! R4    R(1,5)                  1.0918         calculate D2E/DX2 analytically  !
 ! R5    R(2,6)                  1.5365         calculate D2E/DX2 analytically  !
 ! R6    R(2,7)                  1.0937         calculate D2E/DX2 analytically  !
 ! R7    R(2,8)                  1.0926         calculate D2E/DX2 analytically  !
 ! R8    R(6,9)                  1.5414         calculate D2E/DX2 analytically  !
 ! R9    R(6,10)                 1.0951         calculate D2E/DX2 analytically  !
 ! R10   R(6,32)                 1.5163         calculate D2E/DX2 analytically  !
 ! R11   R(9,11)                 1.0939         calculate D2E/DX2 analytically  !
 ! R12   R(9,12)                 1.0932         calculate D2E/DX2 analytically  !
 ! R13   R(9,13)                 1.5408         calculate D2E/DX2 analytically  !
 ! R14   R(13,14)                1.5385         calculate D2E/DX2 analytically  !
 ! R15   R(13,15)                1.0952         calculate D2E/DX2 analytically  !
 ! R16   R(13,22)                1.5157         calculate D2E/DX2 analytically  !
 ! R17   R(14,16)                1.0938         calculate D2E/DX2 analytically  !
 ! R18   R(14,17)                1.0928         calculate D2E/DX2 analytically  !
 ! R19   R(14,18)                1.5238         calculate D2E/DX2 analytically  !
 ! R20   R(18,19)                1.09           calculate D2E/DX2 analytically  !
 ! R21   R(18,20)                1.092          calculate D2E/DX2 analytically  !
 ! R22   R(18,21)                1.0902         calculate D2E/DX2 analytically  !
 ! R23   R(22,23)                1.3902         calculate D2E/DX2 analytically  !
 ! R24   R(22,24)                1.3921         calculate D2E/DX2 analytically  !
 ! R25   R(23,25)                1.388          calculate D2E/DX2 analytically  !
 ! R26   R(23,26)                1.0831         calculate D2E/DX2 analytically  !
 ! R27   R(24,27)                1.3815         calculate D2E/DX2 analytically  !
 ! R28   R(24,28)                1.0823         calculate D2E/DX2 analytically  !
 ! R29   R(25,29)                1.3899         calculate D2E/DX2 analytically  !
 ! R30   R(25,30)                1.0831         calculate D2E/DX2 analytically  !
 ! R31   R(27,29)                1.3938         calculate D2E/DX2 analytically  !
 ! R32   R(27,31)                1.0834         calculate D2E/DX2 analytically  !
 ! R33   R(29,45)                1.4996         calculate D2E/DX2 analytically  !
 ! R34   R(32,33)                1.3888         calculate D2E/DX2 analytically  !
 ! R35   R(32,34)                1.3934         calculate D2E/DX2 analytically  !
 ! R36   R(33,35)                1.3841         calculate D2E/DX2 analytically  !
 ! R37   R(33,36)                1.0826         calculate D2E/DX2 analytically  !
 ! R38   R(34,37)                1.3854         calculate D2E/DX2 analytically  !
 ! R39   R(34,38)                1.0831         calculate D2E/DX2 analytically  !
 ! R40   R(35,39)                1.3912         calculate D2E/DX2 analytically  !
 ! R41   R(35,40)                1.0834         calculate D2E/DX2 analytically  !
 ! R42   R(37,39)                1.3925         calculate D2E/DX2 analytically  !
 ! R43   R(37,41)                1.0831         calculate D2E/DX2 analytically  !
 ! R44   R(39,42)                1.4994         calculate D2E/DX2 analytically  !
 ! R45   R(42,43)                1.0882         calculate D2E/DX2 analytically  !
 ! R46   R(42,44)                1.0858         calculate D2E/DX2 analytically  !
 ! R47   R(42,72)                1.5207         calculate D2E/DX2 analytically  !
 ! R48   R(44,75)                2.0787         calculate D2E/DX2 analytically  !
 ! R49   R(45,46)                1.0883         calculate D2E/DX2 analytically  !
 ! R50   R(45,47)                1.0859         calculate D2E/DX2 analytically  !
 ! R51   R(45,73)                1.5208         calculate D2E/DX2 analytically  !
 ! R52   R(47,80)                2.0782         calculate D2E/DX2 analytically  !
 ! R53   R(48,49)                1.0881         calculate D2E/DX2 analytically  !
 ! R54   R(48,50)                1.0885         calculate D2E/DX2 analytically  !
 ! R55   R(48,51)                1.0875         calculate D2E/DX2 analytically  !
 ! R56   R(48,72)                1.4953         calculate D2E/DX2 analytically  !
 ! R57   R(50,81)                2.186          calculate D2E/DX2 analytically  !
 ! R58   R(52,53)                1.0867         calculate D2E/DX2 analytically  !
 ! R59   R(52,54)                1.0889         calculate D2E/DX2 analytically  !
 ! R60   R(52,55)                1.0878         calculate D2E/DX2 analytically  !
 ! R61   R(52,72)                1.4854         calculate D2E/DX2 analytically  !
 ! R62   R(56,57)                1.09           calculate D2E/DX2 analytically  !
 ! R63   R(56,58)                1.086          calculate D2E/DX2 analytically  !
 ! R64   R(56,59)                1.0877         calculate D2E/DX2 analytically  !
 ! R65   R(56,72)                1.4879         calculate D2E/DX2 analytically  !
 ! R66   R(60,61)                1.0881         calculate D2E/DX2 analytically  !
 ! R67   R(60,62)                1.0885         calculate D2E/DX2 analytically  !
 ! R68   R(60,63)                1.0875         calculate D2E/DX2 analytically  !
 ! R69   R(60,73)                1.4954         calculate D2E/DX2 analytically  !
 ! R70   R(62,76)                2.179          calculate D2E/DX2 analytically  !
 ! R71   R(64,65)                1.09           calculate D2E/DX2 analytically  !
 ! R72   R(64,66)                1.0859         calculate D2E/DX2 analytically  !
 ! R73   R(64,67)                1.0877         calculate D2E/DX2 analytically  !
 ! R74   R(64,73)                1.4879         calculate D2E/DX2 analytically  !
 ! R75   R(68,69)                1.0868         calculate D2E/DX2 analytically  !
 ! R76   R(68,70)                1.0888         calculate D2E/DX2 analytically  !
 ! R77   R(68,71)                1.0878         calculate D2E/DX2 analytically  !
 ! R78   R(68,73)                1.4854         calculate D2E/DX2 analytically  !
 ! R79   R(74,75)                1.2422         calculate D2E/DX2 analytically  !
 ! R80   R(74,76)                1.2462         calculate D2E/DX2 analytically  !
 ! R81   R(74,77)                1.3887         calculate D2E/DX2 analytically  !
 ! R82   R(77,78)                0.9597         calculate D2E/DX2 analytically  !
 ! R83   R(79,80)                1.2424         calculate D2E/DX2 analytically  !
 ! R84   R(79,81)                1.2463         calculate D2E/DX2 analytically  !
 ! R85   R(79,82)                1.3884         calculate D2E/DX2 analytically  !
 ! R86   R(82,83)                0.9597         calculate D2E/DX2 analytically  !
 ! A1    A(2,1,3)              111.0429         calculate D2E/DX2 analytically  !
 ! A2    A(2,1,4)              111.2871         calculate D2E/DX2 analytically  !
 ! A3    A(2,1,5)              110.8556         calculate D2E/DX2 analytically  !
 ! A4    A(3,1,4)              108.0206         calculate D2E/DX2 analytically  !
 ! A5    A(3,1,5)              107.8622         calculate D2E/DX2 analytically  !
 ! A6    A(4,1,5)              107.6207         calculate D2E/DX2 analytically  !
 ! A7    A(1,2,6)              113.6094         calculate D2E/DX2 analytically  !
 ! A8    A(1,2,7)              109.7778         calculate D2E/DX2 analytically  !
 ! A9    A(1,2,8)              109.4624         calculate D2E/DX2 analytically  !
 ! A10   A(6,2,7)              109.3587         calculate D2E/DX2 analytically  !
 ! A11   A(6,2,8)              108.2705         calculate D2E/DX2 analytically  !
 ! A12   A(7,2,8)              106.0776         calculate D2E/DX2 analytically  !
 ! A13   A(2,6,9)              110.1632         calculate D2E/DX2 analytically  !
 ! A14   A(2,6,10)             107.1758         calculate D2E/DX2 analytically  !
 ! A15   A(2,6,32)             111.9342         calculate D2E/DX2 analytically  !
 ! A16   A(9,6,10)             107.453          calculate D2E/DX2 analytically  !
 ! A17   A(9,6,32)             112.6742         calculate D2E/DX2 analytically  !
 ! A18   A(10,6,32)            107.1388         calculate D2E/DX2 analytically  !
 ! A19   A(6,9,11)             109.2022         calculate D2E/DX2 analytically  !
 ! A20   A(6,9,12)             107.3842         calculate D2E/DX2 analytically  !
 ! A21   A(6,9,13)             117.3225         calculate D2E/DX2 analytically  !
 ! A22   A(11,9,12)            105.7093         calculate D2E/DX2 analytically  !
 ! A23   A(11,9,13)            109.7735         calculate D2E/DX2 analytically  !
 ! A24   A(12,9,13)            106.7854         calculate D2E/DX2 analytically  !
 ! A25   A(9,13,14)            109.6841         calculate D2E/DX2 analytically  !
 ! A26   A(9,13,15)            107.2904         calculate D2E/DX2 analytically  !
 ! A27   A(9,13,22)            113.9311         calculate D2E/DX2 analytically  !
 ! A28   A(14,13,15)           107.3752         calculate D2E/DX2 analytically  !
 ! A29   A(14,13,22)           110.9893         calculate D2E/DX2 analytically  !
 ! A30   A(15,13,22)           107.2688         calculate D2E/DX2 analytically  !
 ! A31   A(13,14,16)           108.819          calculate D2E/DX2 analytically  !
 ! A32   A(13,14,17)           108.4182         calculate D2E/DX2 analytically  !
 ! A33   A(13,14,18)           113.845          calculate D2E/DX2 analytically  !
 ! A34   A(16,14,17)           106.3482         calculate D2E/DX2 analytically  !
 ! A35   A(16,14,18)           109.6742         calculate D2E/DX2 analytically  !
 ! A36   A(17,14,18)           109.459          calculate D2E/DX2 analytically  !
 ! A37   A(14,18,19)           110.957          calculate D2E/DX2 analytically  !
 ! A38   A(14,18,20)           110.9328         calculate D2E/DX2 analytically  !
 ! A39   A(14,18,21)           111.3167         calculate D2E/DX2 analytically  !
 ! A40   A(19,18,20)           107.8258         calculate D2E/DX2 analytically  !
 ! A41   A(19,18,21)           107.9986         calculate D2E/DX2 analytically  !
 ! A42   A(20,18,21)           107.6574         calculate D2E/DX2 analytically  !
 ! A43   A(13,22,23)           121.2874         calculate D2E/DX2 analytically  !
 ! A44   A(13,22,24)           120.66           calculate D2E/DX2 analytically  !
 ! A45   A(23,22,24)           118.0298         calculate D2E/DX2 analytically  !
 ! A46   A(22,23,25)           121.0729         calculate D2E/DX2 analytically  !
 ! A47   A(22,23,26)           119.3946         calculate D2E/DX2 analytically  !
 ! A48   A(25,23,26)           119.4263         calculate D2E/DX2 analytically  !
 ! A49   A(22,24,27)           121.1465         calculate D2E/DX2 analytically  !
 ! A50   A(22,24,28)           119.8622         calculate D2E/DX2 analytically  !
 ! A51   A(27,24,28)           118.8536         calculate D2E/DX2 analytically  !
 ! A52   A(23,25,29)           120.4212         calculate D2E/DX2 analytically  !
 ! A53   A(23,25,30)           119.7993         calculate D2E/DX2 analytically  !
 ! A54   A(29,25,30)           119.6227         calculate D2E/DX2 analytically  !
 ! A55   A(24,27,29)           120.5074         calculate D2E/DX2 analytically  !
 ! A56   A(24,27,31)           120.2845         calculate D2E/DX2 analytically  !
 ! A57   A(29,27,31)           119.063          calculate D2E/DX2 analytically  !
 ! A58   A(25,29,27)           118.6647         calculate D2E/DX2 analytically  !
 ! A59   A(25,29,45)           121.744          calculate D2E/DX2 analytically  !
 ! A60   A(27,29,45)           119.1104         calculate D2E/DX2 analytically  !
 ! A61   A(6,32,33)            120.3402         calculate D2E/DX2 analytically  !
 ! A62   A(6,32,34)            121.5259         calculate D2E/DX2 analytically  !
 ! A63   A(33,32,34)           118.0334         calculate D2E/DX2 analytically  !
 ! A64   A(32,33,35)           121.2984         calculate D2E/DX2 analytically  !
 ! A65   A(32,33,36)           119.3163         calculate D2E/DX2 analytically  !
 ! A66   A(35,33,36)           119.2439         calculate D2E/DX2 analytically  !
 ! A67   A(32,34,37)           120.9286         calculate D2E/DX2 analytically  !
 ! A68   A(32,34,38)           119.8927         calculate D2E/DX2 analytically  !
 ! A69   A(37,34,38)           119.0688         calculate D2E/DX2 analytically  !
 ! A70   A(33,35,39)           120.3812         calculate D2E/DX2 analytically  !
 ! A71   A(33,35,40)           120.3231         calculate D2E/DX2 analytically  !
 ! A72   A(39,35,40)           119.1498         calculate D2E/DX2 analytically  !
 ! A73   A(34,37,39)           120.5484         calculate D2E/DX2 analytically  !
 ! A74   A(34,37,41)           119.7715         calculate D2E/DX2 analytically  !
 ! A75   A(39,37,41)           119.5331         calculate D2E/DX2 analytically  !
 ! A76   A(35,39,37)           118.6663         calculate D2E/DX2 analytically  !
 ! A77   A(35,39,42)           119.1718         calculate D2E/DX2 analytically  !
 ! A78   A(37,39,42)           121.6777         calculate D2E/DX2 analytically  !
 ! A79   A(39,42,43)           111.4778         calculate D2E/DX2 analytically  !
 ! A80   A(39,42,44)           108.9412         calculate D2E/DX2 analytically  !
 ! A81   A(39,42,72)           116.1051         calculate D2E/DX2 analytically  !
 ! A82   A(43,42,44)           110.5002         calculate D2E/DX2 analytically  !
 ! A83   A(43,42,72)           105.6143         calculate D2E/DX2 analytically  !
 ! A84   A(44,42,72)           103.8992         calculate D2E/DX2 analytically  !
 ! A85   A(42,44,75)           150.1071         calculate D2E/DX2 analytically  !
 ! A86   A(29,45,46)           111.5132         calculate D2E/DX2 analytically  !
 ! A87   A(29,45,47)           108.9286         calculate D2E/DX2 analytically  !
 ! A88   A(29,45,73)           116.0692         calculate D2E/DX2 analytically  !
 ! A89   A(46,45,47)           110.4822         calculate D2E/DX2 analytically  !
 ! A90   A(46,45,73)           105.6316         calculate D2E/DX2 analytically  !
 ! A91   A(47,45,73)           103.911          calculate D2E/DX2 analytically  !
 ! A92   A(45,47,80)           150.104          calculate D2E/DX2 analytically  !
 ! A93   A(49,48,50)           110.6207         calculate D2E/DX2 analytically  !
 ! A94   A(49,48,51)           109.9112         calculate D2E/DX2 analytically  !
 ! A95   A(49,48,72)           108.1584         calculate D2E/DX2 analytically  !
 ! A96   A(50,48,51)           112.0458         calculate D2E/DX2 analytically  !
 ! A97   A(50,48,72)           107.7928         calculate D2E/DX2 analytically  !
 ! A98   A(51,48,72)           108.1801         calculate D2E/DX2 analytically  !
 ! A99   A(48,50,81)           150.4577         calculate D2E/DX2 analytically  !
 ! A100  A(53,52,54)           110.7808         calculate D2E/DX2 analytically  !
 ! A101  A(53,52,55)           109.9207         calculate D2E/DX2 analytically  !
 ! A102  A(53,52,72)           108.7074         calculate D2E/DX2 analytically  !
 ! A103  A(54,52,55)           110.8158         calculate D2E/DX2 analytically  !
 ! A104  A(54,52,72)           107.7777         calculate D2E/DX2 analytically  !
 ! A105  A(55,52,72)           108.7655         calculate D2E/DX2 analytically  !
 ! A106  A(57,56,58)           110.6679         calculate D2E/DX2 analytically  !
 ! A107  A(57,56,59)           110.8618         calculate D2E/DX2 analytically  !
 ! A108  A(57,56,72)           107.7602         calculate D2E/DX2 analytically  !
 ! A109  A(58,56,59)           110.179          calculate D2E/DX2 analytically  !
 ! A110  A(58,56,72)           109.0314         calculate D2E/DX2 analytically  !
 ! A111  A(59,56,72)           108.2579         calculate D2E/DX2 analytically  !
 ! A112  A(61,60,62)           110.616          calculate D2E/DX2 analytically  !
 ! A113  A(61,60,63)           109.926          calculate D2E/DX2 analytically  !
 ! A114  A(61,60,73)           108.1476         calculate D2E/DX2 analytically  !
 ! A115  A(62,60,63)           112.0816         calculate D2E/DX2 analytically  !
 ! A116  A(62,60,73)           107.7939         calculate D2E/DX2 analytically  !
 ! A117  A(63,60,73)           108.1412         calculate D2E/DX2 analytically  !
 ! A118  A(60,62,76)           150.6221         calculate D2E/DX2 analytically  !
 ! A119  A(65,64,66)           110.7094         calculate D2E/DX2 analytically  !
 ! A120  A(65,64,67)           110.8327         calculate D2E/DX2 analytically  !
 ! A121  A(65,64,73)           107.7609         calculate D2E/DX2 analytically  !
 ! A122  A(66,64,67)           110.16           calculate D2E/DX2 analytically  !
 ! A123  A(66,64,73)           109.0506         calculate D2E/DX2 analytically  !
 ! A124  A(67,64,73)           108.2447         calculate D2E/DX2 analytically  !
 ! A125  A(69,68,70)           110.7902         calculate D2E/DX2 analytically  !
 ! A126  A(69,68,71)           109.9269         calculate D2E/DX2 analytically  !
 ! A127  A(69,68,73)           108.704          calculate D2E/DX2 analytically  !
 ! A128  A(70,68,71)           110.8124         calculate D2E/DX2 analytically  !
 ! A129  A(70,68,73)           107.779          calculate D2E/DX2 analytically  !
 ! A130  A(71,68,73)           108.7549         calculate D2E/DX2 analytically  !
 ! A131  A(42,72,48)           107.0883         calculate D2E/DX2 analytically  !
 ! A132  A(42,72,52)           109.7109         calculate D2E/DX2 analytically  !
 ! A133  A(42,72,56)           110.8888         calculate D2E/DX2 analytically  !
 ! A134  A(48,72,52)           109.214          calculate D2E/DX2 analytically  !
 ! A135  A(48,72,56)           108.6749         calculate D2E/DX2 analytically  !
 ! A136  A(52,72,56)           111.1575         calculate D2E/DX2 analytically  !
 ! A137  A(45,73,60)           107.1089         calculate D2E/DX2 analytically  !
 ! A138  A(45,73,64)           110.9246         calculate D2E/DX2 analytically  !
 ! A139  A(45,73,68)           109.6978         calculate D2E/DX2 analytically  !
 ! A140  A(60,73,64)           108.6359         calculate D2E/DX2 analytically  !
 ! A141  A(60,73,68)           109.2298         calculate D2E/DX2 analytically  !
 ! A142  A(64,73,68)           111.1385         calculate D2E/DX2 analytically  !
 ! A143  A(75,74,76)           129.3776         calculate D2E/DX2 analytically  !
 ! A144  A(75,74,77)           114.3711         calculate D2E/DX2 analytically  !
 ! A145  A(76,74,77)           116.2233         calculate D2E/DX2 analytically  !
 ! A146  A(44,75,74)           119.3951         calculate D2E/DX2 analytically  !
 ! A147  A(62,76,74)           110.8557         calculate D2E/DX2 analytically  !
 ! A148  A(74,77,78)           105.1663         calculate D2E/DX2 analytically  !
 ! A149  A(80,79,81)           129.3637         calculate D2E/DX2 analytically  !
 ! A150  A(80,79,82)           114.3783         calculate D2E/DX2 analytically  !
 ! A151  A(81,79,82)           116.2306         calculate D2E/DX2 analytically  !
 ! A152  A(47,80,79)           120.0342         calculate D2E/DX2 analytically  !
 ! A153  A(50,81,79)           111.2906         calculate D2E/DX2 analytically  !
 ! A154  A(79,82,83)           105.1629         calculate D2E/DX2 analytically  !
 ! D1    D(3,1,2,6)            177.4264         calculate D2E/DX2 analytically  !
 ! D2    D(3,1,2,7)            -59.7804         calculate D2E/DX2 analytically  !
 ! D3    D(3,1,2,8)             56.2728         calculate D2E/DX2 analytically  !
 ! D4    D(4,1,2,6)            -62.2003         calculate D2E/DX2 analytically  !
 ! D5    D(4,1,2,7)             60.593          calculate D2E/DX2 analytically  !
 ! D6    D(4,1,2,8)            176.6462         calculate D2E/DX2 analytically  !
 ! D7    D(5,1,2,6)             57.5416         calculate D2E/DX2 analytically  !
 ! D8    D(5,1,2,7)           -179.6651         calculate D2E/DX2 analytically  !
 ! D9    D(5,1,2,8)            -63.6119         calculate D2E/DX2 analytically  !
 ! D10   D(1,2,6,9)           -176.5479         calculate D2E/DX2 analytically  !
 ! D11   D(1,2,6,10)           -59.9378         calculate D2E/DX2 analytically  !
 ! D12   D(1,2,6,32)            57.2545         calculate D2E/DX2 analytically  !
 ! D13   D(7,2,6,9)             60.4286         calculate D2E/DX2 analytically  !
 ! D14   D(7,2,6,10)           177.0387         calculate D2E/DX2 analytically  !
 ! D15   D(7,2,6,32)           -65.769          calculate D2E/DX2 analytically  !
 ! D16   D(8,2,6,9)            -54.7294         calculate D2E/DX2 analytically  !
 ! D17   D(8,2,6,10)            61.8807         calculate D2E/DX2 analytically  !
 ! D18   D(8,2,6,32)           179.0731         calculate D2E/DX2 analytically  !
 ! D19   D(2,6,9,11)           -72.6546         calculate D2E/DX2 analytically  !
 ! D20   D(2,6,9,12)            41.5169         calculate D2E/DX2 analytically  !
 ! D21   D(2,6,9,13)           161.673          calculate D2E/DX2 analytically  !
 ! D22   D(10,6,9,11)          170.9085         calculate D2E/DX2 analytically  !
 ! D23   D(10,6,9,12)          -74.92           calculate D2E/DX2 analytically  !
 ! D24   D(10,6,9,13)           45.2361         calculate D2E/DX2 analytically  !
 ! D25   D(32,6,9,11)           53.125          calculate D2E/DX2 analytically  !
 ! D26   D(32,6,9,12)          167.2965         calculate D2E/DX2 analytically  !
 ! D27   D(32,6,9,13)          -72.5475         calculate D2E/DX2 analytically  !
 ! D28   D(2,6,32,33)         -125.022          calculate D2E/DX2 analytically  !
 ! D29   D(2,6,32,34)           58.6946         calculate D2E/DX2 analytically  !
 ! D30   D(9,6,32,33)          110.1612         calculate D2E/DX2 analytically  !
 ! D31   D(9,6,32,34)          -66.1222         calculate D2E/DX2 analytically  !
 ! D32   D(10,6,32,33)          -7.8073         calculate D2E/DX2 analytically  !
 ! D33   D(10,6,32,34)         175.9092         calculate D2E/DX2 analytically  !
 ! D34   D(6,9,13,14)         -170.3218         calculate D2E/DX2 analytically  !
 ! D35   D(6,9,13,15)          -53.9925         calculate D2E/DX2 analytically  !
 ! D36   D(6,9,13,22)           64.5811         calculate D2E/DX2 analytically  !
 ! D37   D(11,9,13,14)          64.2889         calculate D2E/DX2 analytically  !
 ! D38   D(11,9,13,15)        -179.3818         calculate D2E/DX2 analytically  !
 ! D39   D(11,9,13,22)         -60.8082         calculate D2E/DX2 analytically  !
 ! D40   D(12,9,13,14)         -49.851          calculate D2E/DX2 analytically  !
 ! D41   D(12,9,13,15)          66.4783         calculate D2E/DX2 analytically  !
 ! D42   D(12,9,13,22)        -174.948          calculate D2E/DX2 analytically  !
 ! D43   D(9,13,14,16)         -62.7562         calculate D2E/DX2 analytically  !
 ! D44   D(9,13,14,17)          52.5158         calculate D2E/DX2 analytically  !
 ! D45   D(9,13,14,18)         174.5937         calculate D2E/DX2 analytically  !
 ! D46   D(15,13,14,16)       -179.0319         calculate D2E/DX2 analytically  !
 ! D47   D(15,13,14,17)        -63.76           calculate D2E/DX2 analytically  !
 ! D48   D(15,13,14,18)         58.3179         calculate D2E/DX2 analytically  !
 ! D49   D(22,13,14,16)         64.0189         calculate D2E/DX2 analytically  !
 ! D50   D(22,13,14,17)        179.2908         calculate D2E/DX2 analytically  !
 ! D51   D(22,13,14,18)        -58.6312         calculate D2E/DX2 analytically  !
 ! D52   D(9,13,22,23)        -125.4021         calculate D2E/DX2 analytically  !
 ! D53   D(9,13,22,24)          52.8271         calculate D2E/DX2 analytically  !
 ! D54   D(14,13,22,23)        110.1983         calculate D2E/DX2 analytically  !
 ! D55   D(14,13,22,24)        -71.5725         calculate D2E/DX2 analytically  !
 ! D56   D(15,13,22,23)         -6.8161         calculate D2E/DX2 analytically  !
 ! D57   D(15,13,22,24)        171.4131         calculate D2E/DX2 analytically  !
 ! D58   D(13,14,18,19)       -177.6044         calculate D2E/DX2 analytically  !
 ! D59   D(13,14,18,20)        -57.7711         calculate D2E/DX2 analytically  !
 ! D60   D(13,14,18,21)         62.0883         calculate D2E/DX2 analytically  !
 ! D61   D(16,14,18,19)         60.2157         calculate D2E/DX2 analytically  !
 ! D62   D(16,14,18,20)       -179.951          calculate D2E/DX2 analytically  !
 ! D63   D(16,14,18,21)        -60.0916         calculate D2E/DX2 analytically  !
 ! D64   D(17,14,18,19)        -56.1027         calculate D2E/DX2 analytically  !
 ! D65   D(17,14,18,20)         63.7306         calculate D2E/DX2 analytically  !
 ! D66   D(17,14,18,21)       -176.4099         calculate D2E/DX2 analytically  !
 ! D67   D(13,22,23,25)        174.4068         calculate D2E/DX2 analytically  !
 ! D68   D(13,22,23,26)         -1.8243         calculate D2E/DX2 analytically  !
 ! D69   D(24,22,23,25)         -3.8676         calculate D2E/DX2 analytically  !
 ! D70   D(24,22,23,26)        179.9013         calculate D2E/DX2 analytically  !
 ! D71   D(13,22,24,27)       -174.0193         calculate D2E/DX2 analytically  !
 ! D72   D(13,22,24,28)          1.6668         calculate D2E/DX2 analytically  !
 ! D73   D(23,22,24,27)          4.2664         calculate D2E/DX2 analytically  !
 ! D74   D(23,22,24,28)        179.9525         calculate D2E/DX2 analytically  !
 ! D75   D(22,23,25,29)          0.7129         calculate D2E/DX2 analytically  !
 ! D76   D(22,23,25,30)       -174.7205         calculate D2E/DX2 analytically  !
 ! D77   D(26,23,25,29)        176.9428         calculate D2E/DX2 analytically  !
 ! D78   D(26,23,25,30)          1.5094         calculate D2E/DX2 analytically  !
 ! D79   D(22,24,27,29)         -1.508          calculate D2E/DX2 analytically  !
 ! D80   D(22,24,27,31)        174.0722         calculate D2E/DX2 analytically  !
 ! D81   D(28,24,27,29)       -177.2366         calculate D2E/DX2 analytically  !
 ! D82   D(28,24,27,31)         -1.6564         calculate D2E/DX2 analytically  !
 ! D83   D(23,25,29,27)          2.1209         calculate D2E/DX2 analytically  !
 ! D84   D(23,25,29,45)       -169.8494         calculate D2E/DX2 analytically  !
 ! D85   D(30,25,29,27)        177.5623         calculate D2E/DX2 analytically  !
 ! D86   D(30,25,29,45)          5.592          calculate D2E/DX2 analytically  !
 ! D87   D(24,27,29,25)         -1.7313         calculate D2E/DX2 analytically  !
 ! D88   D(24,27,29,45)        170.4543         calculate D2E/DX2 analytically  !
 ! D89   D(31,27,29,25)       -177.365          calculate D2E/DX2 analytically  !
 ! D90   D(31,27,29,45)         -5.1794         calculate D2E/DX2 analytically  !
 ! D91   D(25,29,45,46)         26.7785         calculate D2E/DX2 analytically  !
 ! D92   D(25,29,45,47)        148.9732         calculate D2E/DX2 analytically  !
 ! D93   D(25,29,45,73)        -94.2372         calculate D2E/DX2 analytically  !
 ! D94   D(27,29,45,46)       -145.157          calculate D2E/DX2 analytically  !
 ! D95   D(27,29,45,47)        -22.9623         calculate D2E/DX2 analytically  !
 ! D96   D(27,29,45,73)         93.8273         calculate D2E/DX2 analytically  !
 ! D97   D(6,32,33,35)        -172.3702         calculate D2E/DX2 analytically  !
 ! D98   D(6,32,33,36)           3.2746         calculate D2E/DX2 analytically  !
 ! D99   D(34,32,33,35)          4.0408         calculate D2E/DX2 analytically  !
 ! D100  D(34,32,33,36)        179.6856         calculate D2E/DX2 analytically  !
 ! D101  D(6,32,34,37)         172.6167         calculate D2E/DX2 analytically  !
 ! D102  D(6,32,34,38)          -3.5361         calculate D2E/DX2 analytically  !
 ! D103  D(33,32,34,37)         -3.7495         calculate D2E/DX2 analytically  !
 ! D104  D(33,32,34,38)       -179.9023         calculate D2E/DX2 analytically  !
 ! D105  D(32,33,35,39)         -1.347          calculate D2E/DX2 analytically  !
 ! D106  D(32,33,35,40)        174.2241         calculate D2E/DX2 analytically  !
 ! D107  D(36,33,35,39)       -176.9949         calculate D2E/DX2 analytically  !
 ! D108  D(36,33,35,40)         -1.4237         calculate D2E/DX2 analytically  !
 ! D109  D(32,34,37,39)          0.7773         calculate D2E/DX2 analytically  !
 ! D110  D(32,34,37,41)       -174.7958         calculate D2E/DX2 analytically  !
 ! D111  D(38,34,37,39)        176.9613         calculate D2E/DX2 analytically  !
 ! D112  D(38,34,37,41)          1.3881         calculate D2E/DX2 analytically  !
 ! D113  D(33,35,39,37)         -1.7092         calculate D2E/DX2 analytically  !
 ! D114  D(33,35,39,42)        170.4444         calculate D2E/DX2 analytically  !
 ! D115  D(40,35,39,37)       -177.332          calculate D2E/DX2 analytically  !
 ! D116  D(40,35,39,42)         -5.1784         calculate D2E/DX2 analytically  !
 ! D117  D(34,37,39,35)          1.9855         calculate D2E/DX2 analytically  !
 ! D118  D(34,37,39,42)       -169.9625         calculate D2E/DX2 analytically  !
 ! D119  D(41,37,39,35)        177.5692         calculate D2E/DX2 analytically  !
 ! D120  D(41,37,39,42)          5.6211         calculate D2E/DX2 analytically  !
 ! D121  D(35,39,42,43)       -144.7647         calculate D2E/DX2 analytically  !
 ! D122  D(35,39,42,44)        -22.562          calculate D2E/DX2 analytically  !
 ! D123  D(35,39,42,72)         94.2444         calculate D2E/DX2 analytically  !
 ! D124  D(37,39,42,43)         27.1437         calculate D2E/DX2 analytically  !
 ! D125  D(37,39,42,44)        149.3465         calculate D2E/DX2 analytically  !
 ! D126  D(37,39,42,72)        -93.8472         calculate D2E/DX2 analytically  !
 ! D127  D(39,42,44,75)         71.7477         calculate D2E/DX2 analytically  !
 ! D128  D(43,42,44,75)       -165.4608         calculate D2E/DX2 analytically  !
 ! D129  D(72,42,44,75)        -52.5966         calculate D2E/DX2 analytically  !
 ! D130  D(39,42,72,48)       -171.1261         calculate D2E/DX2 analytically  !
 ! D131  D(39,42,72,52)         70.4584         calculate D2E/DX2 analytically  !
 ! D132  D(39,42,72,56)        -52.7098         calculate D2E/DX2 analytically  !
 ! D133  D(43,42,72,48)         64.7973         calculate D2E/DX2 analytically  !
 ! D134  D(43,42,72,52)        -53.6183         calculate D2E/DX2 analytically  !
 ! D135  D(43,42,72,56)       -176.7864         calculate D2E/DX2 analytically  !
 ! D136  D(44,42,72,48)        -51.5465         calculate D2E/DX2 analytically  !
 ! D137  D(44,42,72,52)       -169.9621         calculate D2E/DX2 analytically  !
 ! D138  D(44,42,72,56)         66.8698         calculate D2E/DX2 analytically  !
 ! D139  D(42,44,75,74)        142.6107         calculate D2E/DX2 analytically  !
 ! D140  D(29,45,47,80)         72.5988         calculate D2E/DX2 analytically  !
 ! D141  D(46,45,47,80)       -164.5855         calculate D2E/DX2 analytically  !
 ! D142  D(73,45,47,80)        -51.7031         calculate D2E/DX2 analytically  !
 ! D143  D(29,45,73,60)       -170.9649         calculate D2E/DX2 analytically  !
 ! D144  D(29,45,73,64)        -52.5633         calculate D2E/DX2 analytically  !
 ! D145  D(29,45,73,68)         70.596          calculate D2E/DX2 analytically  !
 ! D146  D(46,45,73,60)         64.923          calculate D2E/DX2 analytically  !
 ! D147  D(46,45,73,64)       -176.6754         calculate D2E/DX2 analytically  !
 ! D148  D(46,45,73,68)        -53.516          calculate D2E/DX2 analytically  !
 ! D149  D(47,45,73,60)        -51.413          calculate D2E/DX2 analytically  !
 ! D150  D(47,45,73,64)         66.9885         calculate D2E/DX2 analytically  !
 ! D151  D(47,45,73,68)       -169.8521         calculate D2E/DX2 analytically  !
 ! D152  D(45,47,80,79)        141.8352         calculate D2E/DX2 analytically  !
 ! D153  D(49,48,50,81)        118.2347         calculate D2E/DX2 analytically  !
 ! D154  D(51,48,50,81)       -118.7434         calculate D2E/DX2 analytically  !
 ! D155  D(72,48,50,81)          0.1701         calculate D2E/DX2 analytically  !
 ! D156  D(49,48,72,42)       -176.86           calculate D2E/DX2 analytically  !
 ! D157  D(49,48,72,52)        -58.1221         calculate D2E/DX2 analytically  !
 ! D158  D(49,48,72,56)         63.2948         calculate D2E/DX2 analytically  !
 ! D159  D(50,48,72,42)        -57.2222         calculate D2E/DX2 analytically  !
 ! D160  D(50,48,72,52)         61.5157         calculate D2E/DX2 analytically  !
 ! D161  D(50,48,72,56)       -177.0675         calculate D2E/DX2 analytically  !
 ! D162  D(51,48,72,42)         64.1306         calculate D2E/DX2 analytically  !
 ! D163  D(51,48,72,52)       -177.1315         calculate D2E/DX2 analytically  !
 ! D164  D(51,48,72,56)        -55.7146         calculate D2E/DX2 analytically  !
 ! D165  D(48,50,81,79)        102.6798         calculate D2E/DX2 analytically  !
 ! D166  D(53,52,72,42)        -61.6519         calculate D2E/DX2 analytically  !
 ! D167  D(53,52,72,48)       -178.743          calculate D2E/DX2 analytically  !
 ! D168  D(53,52,72,56)         61.3577         calculate D2E/DX2 analytically  !
 ! D169  D(54,52,72,42)         58.4767         calculate D2E/DX2 analytically  !
 ! D170  D(54,52,72,48)        -58.6144         calculate D2E/DX2 analytically  !
 ! D171  D(54,52,72,56)       -178.5136         calculate D2E/DX2 analytically  !
 ! D172  D(55,52,72,42)        178.6803         calculate D2E/DX2 analytically  !
 ! D173  D(55,52,72,48)         61.5892         calculate D2E/DX2 analytically  !
 ! D174  D(55,52,72,56)        -58.31           calculate D2E/DX2 analytically  !
 ! D175  D(57,56,72,42)        -55.319          calculate D2E/DX2 analytically  !
 ! D176  D(57,56,72,48)         62.1318         calculate D2E/DX2 analytically  !
 ! D177  D(57,56,72,52)       -177.6492         calculate D2E/DX2 analytically  !
 ! D178  D(58,56,72,42)         64.8483         calculate D2E/DX2 analytically  !
 ! D179  D(58,56,72,48)       -177.7009         calculate D2E/DX2 analytically  !
 ! D180  D(58,56,72,52)        -57.4819         calculate D2E/DX2 analytically  !
 ! D181  D(59,56,72,42)       -175.2812         calculate D2E/DX2 analytically  !
 ! D182  D(59,56,72,48)        -57.8304         calculate D2E/DX2 analytically  !
 ! D183  D(59,56,72,52)         62.3887         calculate D2E/DX2 analytically  !
 ! D184  D(61,60,62,76)        117.5056         calculate D2E/DX2 analytically  !
 ! D185  D(63,60,62,76)       -119.4313         calculate D2E/DX2 analytically  !
 ! D186  D(73,60,62,76)         -0.5439         calculate D2E/DX2 analytically  !
 ! D187  D(61,60,73,45)       -176.8832         calculate D2E/DX2 analytically  !
 ! D188  D(61,60,73,64)         63.2387         calculate D2E/DX2 analytically  !
 ! D189  D(61,60,73,68)        -58.1406         calculate D2E/DX2 analytically  !
 ! D190  D(62,60,73,45)        -57.2565         calculate D2E/DX2 analytically  !
 ! D191  D(62,60,73,64)       -177.1346         calculate D2E/DX2 analytically  !
 ! D192  D(62,60,73,68)         61.4861         calculate D2E/DX2 analytically  !
 ! D193  D(63,60,73,45)         64.1175         calculate D2E/DX2 analytically  !
 ! D194  D(63,60,73,64)        -55.7606         calculate D2E/DX2 analytically  !
 ! D195  D(63,60,73,68)       -177.1399         calculate D2E/DX2 analytically  !
 ! D196  D(60,62,76,74)        103.4442         calculate D2E/DX2 analytically  !
 ! D197  D(65,64,73,45)        -55.4305         calculate D2E/DX2 analytically  !
 ! D198  D(65,64,73,60)         62.0426         calculate D2E/DX2 analytically  !
 ! D199  D(65,64,73,68)       -177.7557         calculate D2E/DX2 analytically  !
 ! D200  D(66,64,73,45)         64.7982         calculate D2E/DX2 analytically  !
 ! D201  D(66,64,73,60)       -177.7288         calculate D2E/DX2 analytically  !
 ! D202  D(66,64,73,68)        -57.5271         calculate D2E/DX2 analytically  !
 ! D203  D(67,64,73,45)       -175.3509         calculate D2E/DX2 analytically  !
 ! D204  D(67,64,73,60)        -57.8779         calculate D2E/DX2 analytically  !
 ! D205  D(67,64,73,68)         62.3238         calculate D2E/DX2 analytically  !
 ! D206  D(69,68,73,45)        -61.561          calculate D2E/DX2 analytically  !
 ! D207  D(69,68,73,60)       -178.6786         calculate D2E/DX2 analytically  !
 ! D208  D(69,68,73,64)         61.4722         calculate D2E/DX2 analytically  !
 ! D209  D(70,68,73,45)         58.5777         calculate D2E/DX2 analytically  !
 ! D210  D(70,68,73,60)        -58.5399         calculate D2E/DX2 analytically  !
 ! D211  D(70,68,73,64)       -178.3891         calculate D2E/DX2 analytically  !
 ! D212  D(71,68,73,45)        178.7719         calculate D2E/DX2 analytically  !
 ! D213  D(71,68,73,60)         61.6543         calculate D2E/DX2 analytically  !
 ! D214  D(71,68,73,64)        -58.1949         calculate D2E/DX2 analytically  !
 ! D215  D(76,74,75,44)         83.2625         calculate D2E/DX2 analytically  !
 ! D216  D(77,74,75,44)        -94.7165         calculate D2E/DX2 analytically  !
 ! D217  D(75,74,76,62)        -85.4801         calculate D2E/DX2 analytically  !
 ! D218  D(77,74,76,62)         92.4677         calculate D2E/DX2 analytically  !
 ! D219  D(75,74,77,78)       -178.929          calculate D2E/DX2 analytically  !
 ! D220  D(76,74,77,78)          2.8124         calculate D2E/DX2 analytically  !
 ! D221  D(81,79,80,47)         82.4498         calculate D2E/DX2 analytically  !
 ! D222  D(82,79,80,47)        -95.5499         calculate D2E/DX2 analytically  !
 ! D223  D(80,79,81,50)        -85.1906         calculate D2E/DX2 analytically  !
 ! D224  D(82,79,81,50)         92.7783         calculate D2E/DX2 analytically  !
 ! D225  D(80,79,82,83)       -178.9706         calculate D2E/DX2 analytically  !
 ! D226  D(81,79,82,83)          2.7534         calculate D2E/DX2 analytically  !
 --------------------------------------------------------------------------------
 Trust Radius=3.00D-01 FncErr=1.00D-07 GrdErr=1.00D-06 EigMax=2.50D+02 EigMin=1.00D-04
 Number of steps in this run=    476 maximum allowed number of steps=    498.
 GradGradGradGradGradGradGradGradGradGradGradGradGradGradGradGradGradGrad

 Leave Link  103 at Thu Mar 14 13:11:11 2024, MaxMem=  1073741824 cpu:               1.1 elap:               0.2
 (Enter /packages/apps/gaussian/g16/g16/l202.exe)
 Stoichiometry    C29H46N2O6
 Framework group  C1[X(C29H46N2O6)]
 Deg. of freedom   243
 Full point group                 C1      NOp   1
 Largest Abelian subgroup         C1      NOp   1
 Largest concise Abelian subgroup C1      NOp   1
                         Standard orientation:                         
 ---------------------------------------------------------------------
 Center     Atomic      Atomic             Coordinates (Angstroms)
 Number     Number       Type             X           Y           Z
 ---------------------------------------------------------------------
      1          6           0        4.896284   -3.778981   -0.641838
      2          6           0        5.209446   -2.505730    0.134914
      3          1           0        5.548350   -4.596106   -0.333211
      4          1           0        3.864182   -4.093872   -0.486132
      5          1           0        5.036738   -3.624958   -1.713591
      6          6           0        4.365093   -1.297246   -0.298217
      7          1           0        5.068993   -2.681196    1.205260
      8          1           0        6.263969   -2.250684    0.005927
      9          6           0        4.804442   -0.037834    0.474335
     10          1           0        4.572841   -1.121076   -1.358859
     11          1           0        4.463516   -0.114419    1.510924
     12          1           0        5.896628   -0.047392    0.520484
     13          6           0        4.395675    1.328343   -0.109248
     14          6           0        5.118692    2.453810    0.650793
     15          1           0        4.745606    1.357021   -1.146672
     16          1           0        4.798656    2.435514    1.696585
     17          1           0        6.189590    2.236335    0.652998
     18          6           0        4.883692    3.841433    0.066567
     19          1           0        5.449384    4.595650    0.613562
     20          1           0        5.195870    3.882505   -0.979013
     21          1           0        3.829317    4.115471    0.107877
     22          6           0        2.898596    1.563782   -0.132716
     23          6           0        2.239634    1.904110   -1.308510
     24          6           0        2.137344    1.408302    1.022369
     25          6           0        0.856040    2.006252   -1.350516
     26          1           0        2.810610    2.032247   -2.219974
     27          6           0        0.759286    1.500116    0.987719
     28          1           0        2.619836    1.142858    1.954077
     29          6           0        0.098824    1.783072   -0.206581
     30          1           0        0.358178    2.188179   -2.295036
     31          1           0        0.174759    1.282620    1.873657
     32          6           0        2.878887   -1.570748   -0.173412
     33          6           0        2.040607   -1.404330   -1.268084
     34          6           0        2.301975   -1.918505    1.046329
     35          6           0        0.665358   -1.495766   -1.141078
     36          1           0        2.466252   -1.129129   -2.224677
     37          6           0        0.926708   -2.017558    1.181037
     38          1           0        2.927425   -2.054362    1.920032
     39          6           0        0.090429   -1.786377    0.091940
     40          1           0        0.022126   -1.271682   -1.983604
     41          1           0        0.493989   -2.205926    2.155939
     42          6           0       -1.395709   -1.667494    0.251602
     43          1           0       -1.662554   -1.312057    1.244895
     44          1           0       -1.779141   -0.994100   -0.508955
     45          6           0       -1.395017    1.663745   -0.260116
     46          1           0       -1.732392    1.307930   -1.231675
     47          1           0       -1.722982    0.990305    0.526011
     48          6           0       -3.640398   -2.561052    0.032502
     49          1           0       -4.231653   -3.469963   -0.058048
     50          1           0       -3.858319   -2.053824    0.970676
     51          1           0       -3.813481   -1.919321   -0.828291
     52          6           0       -1.947289   -3.878475    1.173598
     53          1           0       -0.891159   -4.134147    1.188843
     54          1           0       -2.235570   -3.372357    2.093590
     55          1           0       -2.543668   -4.775613    1.022744
     56          6           0       -1.858303   -3.576631   -1.258835
     57          1           0       -2.019607   -2.833585   -2.039903
     58          1           0       -0.820050   -3.894429   -1.240669
     59          1           0       -2.511041   -4.435118   -1.400166
     60          6           0       -3.617911    2.557982    0.122640
     61          1           0       -4.200503    3.467257    0.255700
     62          1           0       -3.904645    2.050125   -0.796468
     63          1           0       -3.726441    1.917335    0.994663
     64          6           0       -1.746356    3.575389    1.277861
     65          1           0       -1.851695    2.834217    2.070132
     66          1           0       -0.712086    3.892813    1.183986
     67          1           0       -2.386711    4.434578    1.464307
     68          6           0       -2.012752    3.873590   -1.141791
     69          1           0       -0.960328    4.127837   -1.235591
     70          1           0       -2.369276    3.367026   -2.037261
     71          1           0       -2.595241    4.771575   -0.947904
     72          7           0       -2.195155   -2.944610    0.045402
     73          7           0       -2.177369    2.941143    0.002753
     74          6           0       -3.258434    0.064672   -2.764972
     75          8           0       -2.241325   -0.595840   -2.496115
     76          8           0       -3.416498    1.300717   -2.783435
     77          8           0       -4.381704   -0.701866   -3.046362
     78          1           0       -5.073568   -0.068469   -3.249035
     79          6           0       -3.051539   -0.058624    2.888577
     80          8           0       -2.056331    0.597983    2.539460
     81          8           0       -3.213484   -1.294032    2.916271
     82          8           0       -4.143976    0.712041    3.263231
     83          1           0       -4.820301    0.081138    3.519160
 ---------------------------------------------------------------------
 Rotational constants (GHZ):           0.1306847           0.0801484           0.0667776
 Leave Link  202 at Thu Mar 14 13:11:11 2024, MaxMem=  1073741824 cpu:               1.2 elap:               0.1
 (Enter /packages/apps/gaussian/g16/g16/l301.exe)
 Standard basis: 6-311+G(2d,2p) (5D, 7F)
 Ernie: Thresh=  0.10000D-02 Tol=  0.10000D-05 Strict=F.
 There are  1487 symmetry adapted cartesian basis functions of A   symmetry.
 There are  1413 symmetry adapted basis functions of A   symmetry.
  1413 basis functions,  2060 primitive gaussians,  1487 cartesian basis functions
   141 alpha electrons      141 beta electrons
       nuclear repulsion energy      4677.7370345546 Hartrees.
 IExCor= 4639 DFT=T Ex+Corr=wB97XD ExCW=0 ScaHFX=  1.000000
 ScaDFX=  1.000000  1.000000  1.000000  1.000000 ScalE2=  1.000000  1.000000
 IRadAn=      5 IRanWt=     -1 IRanGd=            0 ICorTp=0 IEmpDi=121
 HFx  wShort=  0.000000 wLong=  0.200000 cFull=  0.222036 cShort=  0.000000 cLong=  0.777964
 DFx  wShort=  0.000000 wLong=  0.200000 cFull=  0.000000 cShort=  0.000000 cLong=  1.000000
 NAtoms=   83 NActive=   83 NUniq=   83 SFac= 1.00D+00 NAtFMM=   60 NAOKFM=T Big=T
 Integral buffers will be    131072 words long.
 Raffenetti 2 integral format.
 Two-electron integral symmetry is turned on.
 R6Disp:  Grimme-D2 Dispersion energy=       -0.0995962785 Hartrees.
 Nuclear repulsion after empirical dispersion term =     4677.6374382760 Hartrees.
 Leave Link  301 at Thu Mar 14 13:11:12 2024, MaxMem=  1073741824 cpu:               1.6 elap:               0.2
 (Enter /packages/apps/gaussian/g16/g16/l302.exe)
 NPDir=0 NMtPBC=     1 NCelOv=     1 NCel=       1 NClECP=     1 NCelD=      1
         NCelK=      1 NCelE2=     1 NClLst=     1 CellRange=     0.0.
 One-electron integrals computed using PRISM.
 One-electron integral symmetry used in STVInt
 NBasis=  1413 RedAO= T EigKep=  1.21D-06  NBF=  1413
 NBsUse=  1402 1.00D-06 EigRej=  9.49D-07 NBFU=  1402
 Precomputing XC quadrature grid using
 IXCGrd= 4 IRadAn=           5 IRanWt=          -1 IRanGd=           0 AccXCQ= 0.00D+00.
 Generated NRdTot=       0 NPtTot=           0 NUsed=           0 NTot=          32
 NSgBfM=  1421  1408  1408  1421  1421 MxSgAt=    83 MxSgA2=    83.
 Leave Link  302 at Thu Mar 14 13:11:16 2024, MaxMem=  1073741824 cpu:              70.7 elap:               3.8
 (Enter /packages/apps/gaussian/g16/g16/l303.exe)
 DipDrv:  MaxL=1.
 Leave Link  303 at Thu Mar 14 13:11:17 2024, MaxMem=  1073741824 cpu:               5.6 elap:               0.5
 (Enter /packages/apps/gaussian/g16/g16/l401.exe)
 ExpMin= 4.38D-02 ExpMax= 8.59D+03 ExpMxC= 1.30D+03 IAcc=3 IRadAn=         5 AccDes= 0.00D+00
 Harris functional with IExCor= 4639 and IRadAn=       5 diagonalized for initial guess.
 HarFok:  IExCor= 4639 AccDes= 0.00D+00 IRadAn=         5 IDoV= 1 UseB2=F ITyADJ=14
 ICtDFT=  3500011 ScaDFX=  1.000000  1.000000  1.000000  1.000000
 FoFCou: FMM=F IPFlag=           0 FMFlag=      100000 FMFlg1=        2001
         NFxFlg=           0 DoJE=T BraDBF=F KetDBF=T FulRan=T
         wScrn=  0.000000 ICntrl=       500 IOpCl=  0 I1Cent=   200000004 NGrid=           0
         NMat0=    1 NMatS0=      1 NMatT0=    0 NMatD0=    1 NMtDS0=    0 NMtDT0=    0
 Petite list used in FoFCou.
 Harris En= -1619.66174228102    
 JPrj=0 DoOrth=F DoCkMO=F.
 Leave Link  401 at Thu Mar 14 13:11:27 2024, MaxMem=  1073741824 cpu:             192.2 elap:               9.8
 (Enter /packages/apps/gaussian/g16/g16/l502.exe)
 Integral symmetry usage will be decided dynamically.
 Closed shell SCF:
 Using DIIS extrapolation, IDIIS=  1040.
 NGot=  1073741824 LenX=  1069276177 LenY=  1067063521
 Requested convergence on RMS density matrix=1.00D-08 within 128 cycles.
 Requested convergence on MAX density matrix=1.00D-06.
 Requested convergence on             energy=1.00D-06.
 No special actions if energy rises.
 Fock matrices will be formed incrementally for  20 cycles.

 Cycle   1  Pass 1  IDiag  1:
 FoFJK:  IHMeth= 1 ICntrl=       0 DoSepK=T KAlg= 0 I1Cent=           0 FoldK=F
 IRaf=         1 NMat=       1 IRICut=       1 DoRegI=T DoRafI=F ISym2E= 0 IDoP0=0 IntGTp=1.
 FoFCou: FMM=T IPFlag=           0 FMFlag=      100000 FMFlg1=        2001
         NFxFlg=           0 DoJE=T BraDBF=F KetDBF=F FulRan=T
         wScrn=  0.000000 ICntrl=       500 IOpCl=  0 I1Cent=           0 NGrid=           0
         NMat0=    1 NMatS0=      1 NMatT0=    0 NMatD0=    1 NMtDS0=    0 NMtDT0=    0
 Symmetry not used in FoFCou.
 FMM levels:  10  Number of levels for PrismC:   9
 E= -1693.12668806504    
 DIIS: error= 4.41D-02 at cycle   1 NSaved=   1.
 NSaved= 1 IEnMin= 1 EnMin= -1693.12668806504     IErMin= 1 ErrMin= 4.41D-02
 ErrMax= 4.41D-02  0.00D+00 EMaxC= 1.00D-01 BMatC= 3.68D+00 BMatP= 3.68D+00
 IDIUse=3 WtCom= 5.59D-01 WtEn= 4.41D-01
 Coeff-Com:  0.100D+01
 Coeff-En:   0.100D+01
 Coeff:      0.100D+01
 Gap=     0.408 Goal=   None    Shift=    0.000
 GapD=    0.408 DampG=2.000 DampE=0.500 DampFc=1.0000 IDamp=-1.
 RMSDP=5.55D-03 MaxDP=1.19D+00              OVMax= 1.21D-01

 Cycle   2  Pass 1  IDiag  1:
 RMSU=  2.93D-03    CP:  6.64D-01
 E= -1693.30531626781     Delta-E=       -0.178628202775 Rises=F Damp=F
 DIIS: error= 1.85D-02 at cycle   2 NSaved=   2.
 NSaved= 2 IEnMin= 2 EnMin= -1693.30531626781     IErMin= 2 ErrMin= 1.85D-02
 ErrMax= 1.85D-02  0.00D+00 EMaxC= 1.00D-01 BMatC= 5.78D-01 BMatP= 3.68D+00
 IDIUse=3 WtCom= 8.15D-01 WtEn= 1.85D-01
 Coeff-Com:  0.216D+00 0.784D+00
 Coeff-En:   0.382D+00 0.618D+00
 Coeff:      0.246D+00 0.754D+00
 Gap=     0.381 Goal=   None    Shift=    0.000
 RMSDP=1.51D-03 MaxDP=1.52D-01 DE=-1.79D-01 OVMax= 1.05D-01

 Cycle   3  Pass 1  IDiag  1:
 RMSU=  1.32D-03    CP:  6.42D-01  7.75D-01
 E= -1693.53356929165     Delta-E=       -0.228253023839 Rises=F Damp=F
 DIIS: error= 1.23D-02 at cycle   3 NSaved=   3.
 NSaved= 3 IEnMin= 3 EnMin= -1693.53356929165     IErMin= 3 ErrMin= 1.23D-02
 ErrMax= 1.23D-02  0.00D+00 EMaxC= 1.00D-01 BMatC= 2.31D-01 BMatP= 5.78D-01
 IDIUse=3 WtCom= 8.77D-01 WtEn= 1.23D-01
 Coeff-Com:  0.248D-01 0.389D+00 0.586D+00
 Coeff-En:   0.000D+00 0.314D+00 0.686D+00
 Coeff:      0.218D-01 0.380D+00 0.598D+00
 Gap=     0.334 Goal=   None    Shift=    0.000
 RMSDP=7.05D-04 MaxDP=7.60D-02 DE=-2.28D-01 OVMax= 4.86D-02

 Cycle   4  Pass 1  IDiag  1:
 RMSU=  4.04D-04    CP:  6.52D-01  9.00D-01  6.78D-01
 E= -1693.71303849403     Delta-E=       -0.179469202380 Rises=F Damp=F
 DIIS: error= 9.91D-04 at cycle   4 NSaved=   4.
 NSaved= 4 IEnMin= 4 EnMin= -1693.71303849403     IErMin= 4 ErrMin= 9.91D-04
 ErrMax= 9.91D-04  0.00D+00 EMaxC= 1.00D-01 BMatC= 2.82D-03 BMatP= 2.31D-01
 IDIUse=3 WtCom= 9.90D-01 WtEn= 9.91D-03
 Coeff-Com:  0.451D-02 0.931D-01 0.194D+00 0.708D+00
 Coeff-En:   0.000D+00 0.000D+00 0.000D+00 0.100D+01
 Coeff:      0.447D-02 0.922D-01 0.192D+00 0.711D+00
 Gap=     0.338 Goal=   None    Shift=    0.000
 RMSDP=2.00D-04 MaxDP=2.99D-02 DE=-1.79D-01 OVMax= 6.15D-03

 Cycle   5  Pass 1  IDiag  1:
 RMSU=  1.35D-04    CP:  6.44D-01  9.00D-01  7.11D-01  7.88D-01
 E= -1693.71510092080     Delta-E=       -0.002062426764 Rises=F Damp=F
 DIIS: error= 1.92D-04 at cycle   5 NSaved=   5.
 NSaved= 5 IEnMin= 5 EnMin= -1693.71510092080     IErMin= 5 ErrMin= 1.92D-04
 ErrMax= 1.92D-04  0.00D+00 EMaxC= 1.00D-01 BMatC= 2.88D-04 BMatP= 2.82D-03
 IDIUse=3 WtCom= 9.98D-01 WtEn= 1.92D-03
 Coeff-Com: -0.924D-03-0.120D-01 0.677D-02 0.279D+00 0.727D+00
 Coeff-En:   0.000D+00 0.000D+00 0.000D+00 0.000D+00 0.100D+01
 Coeff:     -0.923D-03-0.120D-01 0.676D-02 0.278D+00 0.728D+00
 Gap=     0.337 Goal=   None    Shift=    0.000
 RMSDP=5.10D-05 MaxDP=4.95D-03 DE=-2.06D-03 OVMax= 3.14D-03

 Cycle   6  Pass 1  IDiag  1:
 RMSU=  3.14D-05    CP:  6.44D-01  9.03D-01  7.20D-01  8.81D-01  9.73D-01
 E= -1693.71531328415     Delta-E=       -0.000212363350 Rises=F Damp=F
 DIIS: error= 8.57D-05 at cycle   6 NSaved=   6.
 NSaved= 6 IEnMin= 6 EnMin= -1693.71531328415     IErMin= 6 ErrMin= 8.57D-05
 ErrMax= 8.57D-05  0.00D+00 EMaxC= 1.00D-01 BMatC= 3.87D-05 BMatP= 2.88D-04
 IDIUse=1 WtCom= 1.00D+00 WtEn= 0.00D+00
 Coeff-Com: -0.724D-03-0.113D-01-0.686D-02 0.105D+00 0.376D+00 0.538D+00
 Coeff:     -0.724D-03-0.113D-01-0.686D-02 0.105D+00 0.376D+00 0.538D+00
 Gap=     0.335 Goal=   None    Shift=    0.000
 RMSDP=1.56D-05 MaxDP=2.58D-03 DE=-2.12D-04 OVMax= 1.10D-03

 Cycle   7  Pass 1  IDiag  1:
 RMSU=  1.03D-05    CP:  6.45D-01  9.04D-01  7.21D-01  8.97D-01  1.03D+00
                    CP:  9.00D-01
 E= -1693.71534679812     Delta-E=       -0.000033513970 Rises=F Damp=F
 DIIS: error= 1.40D-05 at cycle   7 NSaved=   7.
 NSaved= 7 IEnMin= 7 EnMin= -1693.71534679812     IErMin= 7 ErrMin= 1.40D-05
 ErrMax= 1.40D-05  0.00D+00 EMaxC= 1.00D-01 BMatC= 1.05D-06 BMatP= 3.87D-05
 IDIUse=1 WtCom= 1.00D+00 WtEn= 0.00D+00
 Coeff-Com: -0.897D-04-0.186D-02-0.315D-02-0.701D-02 0.427D-02 0.119D+00
 Coeff-Com:  0.889D+00
 Coeff:     -0.897D-04-0.186D-02-0.315D-02-0.701D-02 0.427D-02 0.119D+00
 Coeff:      0.889D+00
 Gap=     0.335 Goal=   None    Shift=    0.000
 RMSDP=7.92D-06 MaxDP=9.74D-04 DE=-3.35D-05 OVMax= 3.29D-04

 Cycle   8  Pass 1  IDiag  1:
 RMSU=  3.08D-06    CP:  6.45D-01  9.04D-01  7.22D-01  9.10D-01  1.06D+00
                    CP:  9.65D-01  1.14D+00
 E= -1693.71534814723     Delta-E=       -0.000001349108 Rises=F Damp=F
 DIIS: error= 7.30D-06 at cycle   8 NSaved=   8.
 NSaved= 8 IEnMin= 8 EnMin= -1693.71534814723     IErMin= 8 ErrMin= 7.30D-06
 ErrMax= 7.30D-06  0.00D+00 EMaxC= 1.00D-01 BMatC= 2.53D-07 BMatP= 1.05D-06
 IDIUse=1 WtCom= 1.00D+00 WtEn= 0.00D+00
 Coeff-Com:  0.989D-05-0.415D-04-0.985D-03-0.115D-01-0.281D-01 0.997D-02
 Coeff-Com:  0.405D+00 0.626D+00
 Coeff:      0.989D-05-0.415D-04-0.985D-03-0.115D-01-0.281D-01 0.997D-02
 Coeff:      0.405D+00 0.626D+00
 Gap=     0.335 Goal=   None    Shift=    0.000
 RMSDP=2.09D-06 MaxDP=2.86D-04 DE=-1.35D-06 OVMax= 9.49D-05

 Cycle   9  Pass 1  IDiag  1:
 RMSU=  1.03D-06    CP:  6.44D-01  9.04D-01  7.22D-01  9.11D-01  1.07D+00
                    CP:  9.84D-01  1.20D+00  1.00D+00
 E= -1693.71534836682     Delta-E=       -0.000000219595 Rises=F Damp=F
 DIIS: error= 3.24D-06 at cycle   9 NSaved=   9.
 NSaved= 9 IEnMin= 9 EnMin= -1693.71534836682     IErMin= 9 ErrMin= 3.24D-06
 ErrMax= 3.24D-06  0.00D+00 EMaxC= 1.00D-01 BMatC= 4.09D-08 BMatP= 2.53D-07
 IDIUse=1 WtCom= 1.00D+00 WtEn= 0.00D+00
 Coeff-Com:  0.191D-04 0.310D-03 0.516D-04-0.491D-02-0.155D-01-0.145D-01
 Coeff-Com:  0.690D-01 0.312D+00 0.654D+00
 Coeff:      0.191D-04 0.310D-03 0.516D-04-0.491D-02-0.155D-01-0.145D-01
 Coeff:      0.690D-01 0.312D+00 0.654D+00
 Gap=     0.335 Goal=   None    Shift=    0.000
 RMSDP=7.26D-07 MaxDP=1.05D-04 DE=-2.20D-07 OVMax= 3.90D-05

 Cycle  10  Pass 1  IDiag  1:
 RMSU=  3.53D-07    CP:  6.45D-01  9.04D-01  7.22D-01  9.11D-01  1.07D+00
                    CP:  9.92D-01  1.22D+00  1.09D+00  1.13D+00
 E= -1693.71534840383     Delta-E=       -0.000000037010 Rises=F Damp=F
 DIIS: error= 5.96D-07 at cycle  10 NSaved=  10.
 NSaved=10 IEnMin=10 EnMin= -1693.71534840383     IErMin=10 ErrMin= 5.96D-07
 ErrMax= 5.96D-07  0.00D+00 EMaxC= 1.00D-01 BMatC= 1.93D-09 BMatP= 4.09D-08
 IDIUse=1 WtCom= 1.00D+00 WtEn= 0.00D+00
 Coeff-Com:  0.339D-05 0.782D-04 0.127D-03 0.566D-04-0.538D-03-0.459D-02
 Coeff-Com: -0.260D-01 0.729D-02 0.153D+00 0.870D+00
 Coeff:      0.339D-05 0.782D-04 0.127D-03 0.566D-04-0.538D-03-0.459D-02
 Coeff:     -0.260D-01 0.729D-02 0.153D+00 0.870D+00
 Gap=     0.335 Goal=   None    Shift=    0.000
 RMSDP=2.52D-07 MaxDP=2.72D-05 DE=-3.70D-08 OVMax= 1.74D-05

 Cycle  11  Pass 1  IDiag  1:
 RMSU=  1.25D-07    CP:  6.45D-01  9.04D-01  7.22D-01  9.11D-01  1.07D+00
                    CP:  9.94D-01  1.23D+00  1.12D+00  1.25D+00  1.17D+00
 E= -1693.71534840720     Delta-E=       -0.000000003365 Rises=F Damp=F
 DIIS: error= 3.63D-07 at cycle  11 NSaved=  11.
 NSaved=11 IEnMin=11 EnMin= -1693.71534840720     IErMin=11 ErrMin= 3.63D-07
 ErrMax= 3.63D-07  0.00D+00 EMaxC= 1.00D-01 BMatC= 5.58D-10 BMatP= 1.93D-09
 IDIUse=1 WtCom= 1.00D+00 WtEn= 0.00D+00
 Coeff-Com: -0.581D-06-0.302D-05 0.535D-04 0.663D-03 0.178D-02-0.368D-03
 Coeff-Com: -0.210D-01-0.388D-01-0.210D-01 0.393D+00 0.686D+00
 Coeff:     -0.581D-06-0.302D-05 0.535D-04 0.663D-03 0.178D-02-0.368D-03
 Coeff:     -0.210D-01-0.388D-01-0.210D-01 0.393D+00 0.686D+00
 Gap=     0.335 Goal=   None    Shift=    0.000
 RMSDP=8.72D-08 MaxDP=1.26D-05 DE=-3.37D-09 OVMax= 9.36D-06

 Cycle  12  Pass 1  IDiag  1:
 RMSU=  4.79D-08    CP:  6.45D-01  9.04D-01  7.22D-01  9.11D-01  1.07D+00
                    CP:  9.93D-01  1.23D+00  1.14D+00  1.29D+00  1.26D+00
                    CP:  1.19D+00
 E= -1693.71534840791     Delta-E=       -0.000000000713 Rises=F Damp=F
 DIIS: error= 1.06D-07 at cycle  12 NSaved=  12.
 NSaved=12 IEnMin=12 EnMin= -1693.71534840791     IErMin=12 ErrMin= 1.06D-07
 ErrMax= 1.06D-07  0.00D+00 EMaxC= 1.00D-01 BMatC= 5.48D-11 BMatP= 5.58D-10
 IDIUse=1 WtCom= 1.00D+00 WtEn= 0.00D+00
 Coeff-Com: -0.581D-06-0.101D-04 0.249D-05 0.212D-03 0.648D-03 0.393D-03
 Coeff-Com: -0.333D-02-0.136D-01-0.272D-01 0.120D-01 0.227D+00 0.804D+00
 Coeff:     -0.581D-06-0.101D-04 0.249D-05 0.212D-03 0.648D-03 0.393D-03
 Coeff:     -0.333D-02-0.136D-01-0.272D-01 0.120D-01 0.227D+00 0.804D+00
 Gap=     0.335 Goal=   None    Shift=    0.000
 RMSDP=3.72D-08 MaxDP=3.98D-06 DE=-7.13D-10 OVMax= 4.41D-06

 Cycle  13  Pass 1  IDiag  1:
 RMSU=  2.43D-08    CP:  6.45D-01  9.04D-01  7.22D-01  9.11D-01  1.07D+00
                    CP:  9.93D-01  1.23D+00  1.14D+00  1.30D+00  1.29D+00
                    CP:  1.31D+00  1.17D+00
 E= -1693.71534840800     Delta-E=       -0.000000000090 Rises=F Damp=F
 DIIS: error= 5.83D-08 at cycle  13 NSaved=  13.
 NSaved=13 IEnMin=13 EnMin= -1693.71534840800     IErMin=13 ErrMin= 5.83D-08
 ErrMax= 5.83D-08  0.00D+00 EMaxC= 1.00D-01 BMatC= 1.28D-11 BMatP= 5.48D-11
 IDIUse=1 WtCom= 1.00D+00 WtEn= 0.00D+00
 Coeff-Com: -0.139D-06-0.390D-05-0.864D-05-0.284D-04-0.397D-04 0.204D-03
 Coeff-Com:  0.235D-02 0.111D-02-0.731D-02-0.644D-01-0.258D-01 0.345D+00
 Coeff-Com:  0.749D+00
 Coeff:     -0.139D-06-0.390D-05-0.864D-05-0.284D-04-0.397D-04 0.204D-03
 Coeff:      0.235D-02 0.111D-02-0.731D-02-0.644D-01-0.258D-01 0.345D+00
 Coeff:      0.749D+00
 Gap=     0.335 Goal=   None    Shift=    0.000
 RMSDP=1.46D-08 MaxDP=2.28D-06 DE=-9.00D-11 OVMax= 1.96D-06

 Cycle  14  Pass 1  IDiag  1:
 RMSU=  8.53D-09    CP:  6.45D-01  9.04D-01  7.22D-01  9.11D-01  1.07D+00
                    CP:  9.93D-01  1.23D+00  1.14D+00  1.30D+00  1.30D+00
                    CP:  1.37D+00  1.28D+00  1.10D+00
 E= -1693.71534840797     Delta-E=        0.000000000034 Rises=F Damp=F
 DIIS: error= 2.55D-08 at cycle  14 NSaved=  14.
 NSaved=14 IEnMin=13 EnMin= -1693.71534840800     IErMin=14 ErrMin= 2.55D-08
 ErrMax= 2.55D-08  0.00D+00 EMaxC= 1.00D-01 BMatC= 1.82D-12 BMatP= 1.28D-11
 IDIUse=1 WtCom= 1.00D+00 WtEn= 0.00D+00
 Coeff-Com:  0.274D-07-0.213D-06-0.389D-05-0.422D-04-0.106D-03 0.248D-04
 Coeff-Com:  0.144D-02 0.234D-02 0.103D-02-0.280D-01-0.467D-01 0.143D-01
 Coeff-Com:  0.308D+00 0.748D+00
 Coeff:      0.274D-07-0.213D-06-0.389D-05-0.422D-04-0.106D-03 0.248D-04
[...]
 Alpha virt. eigenvalues --    1.54102   1.54601   1.54773   1.54930   1.55194
 Alpha virt. eigenvalues --    1.55516   1.55652   1.56065   1.56396   1.56785
 Alpha virt. eigenvalues --    1.57107   1.57611   1.58129   1.58260   1.58551
 Alpha virt. eigenvalues --    1.58678   1.58914   1.59319   1.59467   1.59919
 Alpha virt. eigenvalues --    1.60239   1.60481   1.60488   1.61024   1.61656
 Alpha virt. eigenvalues --    1.62082   1.62117   1.62233   1.62517   1.62837
 Alpha virt. eigenvalues --    1.62985   1.63267   1.63798   1.64031   1.64107
 Alpha virt. eigenvalues --    1.64490   1.64690   1.64885   1.65237   1.65729
 Alpha virt. eigenvalues --    1.65815   1.66176   1.66400   1.67101   1.67250
 Alpha virt. eigenvalues --    1.67568   1.67599   1.67944   1.68122   1.68620
 Alpha virt. eigenvalues --    1.68852   1.69396   1.70005   1.70082   1.70481
 Alpha virt. eigenvalues --    1.70821   1.71162   1.71364   1.71767   1.72272
 Alpha virt. eigenvalues --    1.72341   1.72569   1.72858   1.73225   1.73601
 Alpha virt. eigenvalues --    1.73893   1.73964   1.74415   1.74731   1.74916
 Alpha virt. eigenvalues --    1.75145   1.75866   1.76005   1.76604   1.76830
 Alpha virt. eigenvalues --    1.77750   1.77999   1.78247   1.78745   1.79346
 Alpha virt. eigenvalues --    1.79570   1.80029   1.80526   1.80710   1.81645
 Alpha virt. eigenvalues --    1.81942   1.82817   1.83162   1.83555   1.83822
 Alpha virt. eigenvalues --    1.84696   1.85103   1.85853   1.85976   1.86193
 Alpha virt. eigenvalues --    1.86526   1.86684   1.87077   1.87928   1.88001
 Alpha virt. eigenvalues --    1.88332   1.88600   1.88831   1.89812   1.90269
 Alpha virt. eigenvalues --    1.90722   1.91162   1.91290   1.91618   1.92537
 Alpha virt. eigenvalues --    1.92732   1.93582   1.93919   1.94572   1.94767
 Alpha virt. eigenvalues --    1.95850   1.96797   1.97598   1.98858   1.99342
 Alpha virt. eigenvalues --    1.99425   2.00002   2.00061   2.01258   2.01871
 Alpha virt. eigenvalues --    2.02348   2.02623   2.03032   2.03384   2.04430
 Alpha virt. eigenvalues --    2.05148   2.06546   2.07126   2.07762   2.07893
 Alpha virt. eigenvalues --    2.08356   2.08792   2.09553   2.11124   2.11470
 Alpha virt. eigenvalues --    2.11920   2.12119   2.13385   2.14200   2.15636
 Alpha virt. eigenvalues --    2.17136   2.17202   2.17414   2.18488   2.19183
 Alpha virt. eigenvalues --    2.20640   2.22267   2.22338   2.24224   2.24599
 Alpha virt. eigenvalues --    2.27072   2.27276   2.28283   2.29537   2.30186
 Alpha virt. eigenvalues --    2.31851   2.32322   2.34125   2.40202   2.40325
 Alpha virt. eigenvalues --    2.42530   2.43768   2.49954   2.50424   2.53811
 Alpha virt. eigenvalues --    2.55400   2.70753   2.71414   2.74718   2.76579
 Alpha virt. eigenvalues --    2.78216   2.78401   2.85030   2.85567   2.86483
 Alpha virt. eigenvalues --    2.86743   2.87499   2.88248   2.88741   2.89504
 Alpha virt. eigenvalues --    2.90403   2.91808   2.92488   2.94937   2.96207
 Alpha virt. eigenvalues --    2.97379   2.98485   2.98582   2.99439   2.99748
 Alpha virt. eigenvalues --    2.99893   3.00402   3.01690   3.02152   3.02853
 Alpha virt. eigenvalues --    3.02944   3.03460   3.04229   3.04538   3.05716
 Alpha virt. eigenvalues --    3.06629   3.07148   3.07875   3.08632   3.09021
 Alpha virt. eigenvalues --    3.09957   3.10591   3.11013   3.11141   3.12023
 Alpha virt. eigenvalues --    3.12770   3.13525   3.14243   3.15226   3.16271
 Alpha virt. eigenvalues --    3.16598   3.17135   3.18053   3.19477   3.19829
 Alpha virt. eigenvalues --    3.20124   3.20793   3.20934   3.21762   3.22120
 Alpha virt. eigenvalues --    3.23296   3.24002   3.24406   3.25676   3.25930
 Alpha virt. eigenvalues --    3.26175   3.26734   3.27228   3.28254   3.28668
 Alpha virt. eigenvalues --    3.29302   3.30056   3.31051   3.31172   3.31808
 Alpha virt. eigenvalues --    3.32137   3.33065   3.33635   3.34246   3.34715
 Alpha virt. eigenvalues --    3.35104   3.35537   3.36438   3.36990   3.37736
 Alpha virt. eigenvalues --    3.38120   3.38400   3.38915   3.39223   3.39626
 Alpha virt. eigenvalues --    3.39913   3.40439   3.40627   3.41064   3.41673
 Alpha virt. eigenvalues --    3.42127   3.42942   3.43383   3.44202   3.44450
 Alpha virt. eigenvalues --    3.44557   3.44983   3.45465   3.45792   3.45986
 Alpha virt. eigenvalues --    3.46361   3.47141   3.47536   3.47973   3.48351
 Alpha virt. eigenvalues --    3.48806   3.48975   3.49525   3.50013   3.50479
 Alpha virt. eigenvalues --    3.50869   3.51102   3.51359   3.51557   3.51795
 Alpha virt. eigenvalues --    3.52171   3.52420   3.52913   3.53651   3.54286
 Alpha virt. eigenvalues --    3.54691   3.54953   3.55371   3.55713   3.56068
 Alpha virt. eigenvalues --    3.56329   3.56611   3.57227   3.57521   3.57866
 Alpha virt. eigenvalues --    3.58146   3.58507   3.58913   3.59511   3.59562
 Alpha virt. eigenvalues --    3.60490   3.61102   3.61330   3.61917   3.62287
 Alpha virt. eigenvalues --    3.62832   3.63189   3.63745   3.64210   3.64577
 Alpha virt. eigenvalues --    3.64966   3.65149   3.66038   3.66323   3.66609
 Alpha virt. eigenvalues --    3.67149   3.67859   3.67988   3.68338   3.68815
 Alpha virt. eigenvalues --    3.69033   3.69154   3.69668   3.69919   3.70448
 Alpha virt. eigenvalues --    3.71065   3.71301   3.71721   3.71848   3.72549
 Alpha virt. eigenvalues --    3.72580   3.72953   3.73387   3.73817   3.74302
 Alpha virt. eigenvalues --    3.74452   3.74686   3.74872   3.75365   3.75422
 Alpha virt. eigenvalues --    3.76123   3.76552   3.76589   3.77163   3.77616
 Alpha virt. eigenvalues --    3.77760   3.79014   3.79105   3.79640   3.80179
 Alpha virt. eigenvalues --    3.80547   3.81452   3.81482   3.81803   3.82096
 Alpha virt. eigenvalues --    3.82551   3.82671   3.82952   3.83798   3.84280
 Alpha virt. eigenvalues --    3.84358   3.84967   3.85257   3.85788   3.86199
 Alpha virt. eigenvalues --    3.86477   3.86916   3.87651   3.88010   3.88294
 Alpha virt. eigenvalues --    3.88760   3.89250   3.89640   3.90164   3.90701
 Alpha virt. eigenvalues --    3.90969   3.91116   3.91933   3.92863   3.93159
 Alpha virt. eigenvalues --    3.93478   3.93887   3.94123   3.94526   3.94808
 Alpha virt. eigenvalues --    3.95434   3.95810   3.96139   3.96703   3.96898
 Alpha virt. eigenvalues --    3.97660   3.98070   3.98416   3.98850   3.99486
 Alpha virt. eigenvalues --    3.99544   3.99822   4.00127   4.00450   4.00876
 Alpha virt. eigenvalues --    4.01296   4.01763   4.02524   4.02855   4.03444
 Alpha virt. eigenvalues --    4.03902   4.04187   4.04997   4.05242   4.05990
 Alpha virt. eigenvalues --    4.06110   4.06605   4.06994   4.07248   4.08003
 Alpha virt. eigenvalues --    4.08362   4.09006   4.09480   4.09853   4.10291
 Alpha virt. eigenvalues --    4.10718   4.11017   4.11556   4.11836   4.12561
 Alpha virt. eigenvalues --    4.13082   4.13700   4.14102   4.14761   4.15175
 Alpha virt. eigenvalues --    4.15516   4.15839   4.16053   4.16666   4.17324
 Alpha virt. eigenvalues --    4.17463   4.18187   4.18493   4.18659   4.19231
 Alpha virt. eigenvalues --    4.19328   4.19725   4.20051   4.20602   4.20634
 Alpha virt. eigenvalues --    4.20869   4.21401   4.21810   4.21878   4.22097
 Alpha virt. eigenvalues --    4.22620   4.22747   4.23324   4.23598   4.24302
 Alpha virt. eigenvalues --    4.24521   4.24933   4.25695   4.25883   4.26308
 Alpha virt. eigenvalues --    4.26991   4.27167   4.27440   4.27941   4.28454
 Alpha virt. eigenvalues --    4.28885   4.29031   4.29281   4.30296   4.30750
 Alpha virt. eigenvalues --    4.30927   4.31382   4.32090   4.32479   4.32609
 Alpha virt. eigenvalues --    4.33365   4.33642   4.33918   4.34277   4.34774
 Alpha virt. eigenvalues --    4.35291   4.35347   4.35978   4.36460   4.36715
 Alpha virt. eigenvalues --    4.37246   4.37968   4.38375   4.38883   4.38967
 Alpha virt. eigenvalues --    4.39205   4.39380   4.40427   4.40725   4.41296
 Alpha virt. eigenvalues --    4.42382   4.42532   4.42770   4.43438   4.44049
 Alpha virt. eigenvalues --    4.44551   4.44931   4.45214   4.45469   4.45929
 Alpha virt. eigenvalues --    4.46413   4.46620   4.47228   4.47976   4.48423
 Alpha virt. eigenvalues --    4.48605   4.49061   4.49505   4.50098   4.50565
 Alpha virt. eigenvalues --    4.51136   4.51475   4.53064   4.53564   4.53858
 Alpha virt. eigenvalues --    4.54171   4.56704   4.57582   4.58477   4.59419
 Alpha virt. eigenvalues --    4.60323   4.61215   4.61793   4.62589   4.63487
 Alpha virt. eigenvalues --    4.64596   4.66888   4.67825   4.69431   4.70201
 Alpha virt. eigenvalues --    4.70945   4.71846   4.74088   4.75695   4.77087
 Alpha virt. eigenvalues --    4.78883   4.80015   4.82723   4.83270   4.85161
 Alpha virt. eigenvalues --    4.87493   4.88348   4.98590   5.01014   5.02303
 Alpha virt. eigenvalues --    5.04039   5.04222   5.04469   5.05148   5.06298
 Alpha virt. eigenvalues --    5.06338   5.06843   5.06952   5.12348   5.12815
 Alpha virt. eigenvalues --    5.14146   5.15113   5.15243   5.15764   5.15980
 Alpha virt. eigenvalues --    5.16262   5.16458   5.16658   5.17540   5.18092
 Alpha virt. eigenvalues --    5.18648   5.18874   5.19588   5.19600   5.20022
 Alpha virt. eigenvalues --    5.21798   5.22600   5.22793   5.23290   5.24012
 Alpha virt. eigenvalues --    5.25222   5.25530   5.26218   5.26636   5.27537
 Alpha virt. eigenvalues --    5.28307   5.33254   5.34218   5.34999   5.35970
 Alpha virt. eigenvalues --    5.36618   5.37049   5.37891   5.44189   5.45394
 Alpha virt. eigenvalues --    5.46375   5.47317   5.47429   5.48059   5.49062
 Alpha virt. eigenvalues --    5.49594   5.51093   5.51948   5.52871   5.53291
 Alpha virt. eigenvalues --    5.60724   5.61031   5.78755   5.79994   5.83851
 Alpha virt. eigenvalues --    5.84714   5.90417   5.90873   5.93372   5.94076
 Alpha virt. eigenvalues --    6.32269   6.32938   6.34391   6.35678   6.99022
 Alpha virt. eigenvalues --    6.99442   6.99859   7.00526   7.01440   7.01621
 Alpha virt. eigenvalues --    7.10630   7.10854   7.12569   7.13077   7.15613
 Alpha virt. eigenvalues --    7.17142   7.20660   7.20752   7.23875   7.24412
 Alpha virt. eigenvalues --    7.31733   7.31807   7.31990   7.32153   7.43558
 Alpha virt. eigenvalues --    7.43998   7.48925   7.48987   7.55189   7.55431
 Alpha virt. eigenvalues --    7.56971   7.58328   7.66522   7.66711  23.92326
 Alpha virt. eigenvalues --   23.94208  24.04161  24.05021  24.09504  24.12414
 Alpha virt. eigenvalues --   24.12761  24.13982  24.18124  24.19312  24.19513
 Alpha virt. eigenvalues --   24.19540  24.20714  24.21176  24.21407  24.22521
 Alpha virt. eigenvalues --   24.22829  24.24379  24.27548  24.32992  24.34251
 Alpha virt. eigenvalues --   24.34869  24.36033  24.36668  24.36971  24.38197
 Alpha virt. eigenvalues --   24.39347  24.46913  24.47590  35.64441  35.67338
 Alpha virt. eigenvalues --   50.18853  50.18995  50.21971  50.23412  50.27374
 Alpha virt. eigenvalues --   50.28134
          Condensed to atoms (all electrons):
 Mulliken charges:
               1
     1  C   -0.451909
     2  C   -0.196557
     3  H    0.121736
     4  H    0.125179
     5  H    0.113442
     6  C    0.091601
     7  H    0.124627
     8  H    0.119570
     9  C   -0.520102
    10  H    0.110853
    11  H    0.145361
    12  H    0.121294
    13  C    0.059557
    14  C   -0.216526
    15  H    0.113958
    16  H    0.126903
    17  H    0.115620
    18  C   -0.470220
    19  H    0.121784
    20  H    0.111912
    21  H    0.125444
    22  C    0.422769
    23  C   -0.328664
    24  C   -0.351829
    25  C   -0.294361
    26  H    0.131241
    27  C   -0.201764
    28  H    0.134101
    29  C    0.063634
    30  H    0.154717
    31  H    0.183763
    32  C    0.489866
    33  C   -0.262340
    34  C   -0.427578
    35  C   -0.285124
    36  H    0.128626
    37  C   -0.221650
    38  H    0.134185
    39  C    0.122838
    40  H    0.186346
    41  H    0.154760
    42  C   -0.940660
    43  H    0.265897
    44  H    0.213915
    45  C   -0.833275
    46  H    0.266174
    47  H    0.211545
    48  C   -0.221135
    49  H    0.158269
    50  H    0.216340
    51  H    0.202650
    52  C   -0.190800
    53  H    0.173276
    54  H    0.227453
    55  H    0.145000
    56  C   -0.258297
    57  H    0.226759
    58  H    0.171029
    59  H    0.155201
    60  C   -0.222422
    61  H    0.158139
    62  H    0.216602
    63  H    0.201360
    64  C   -0.261082
    65  H    0.225600
    66  H    0.170642
    67  H    0.155074
    68  C   -0.198756
    69  H    0.174320
    70  H    0.226917
    71  H    0.144671
    72  N    0.212502
    73  N    0.189911
    74  C    0.883506
    75  O   -0.806436
    76  O   -0.672136
    77  O   -0.448948
    78  H    0.288836
    79  C    0.889979
    80  O   -0.816644
    81  O   -0.668311
    82  O   -0.448464
    83  H    0.288731
 Sum of Mulliken charges =  -0.00000
 Mulliken charges with hydrogens summed into heavy atoms:
               1
     1  C   -0.091551
     2  C    0.047640
     6  C    0.202454
     9  C   -0.253446
    13  C    0.173516
    14  C    0.025996
    18  C   -0.111080
    22  C    0.422769
    23  C   -0.197422
    24  C   -0.217728
    25  C   -0.139644
    27  C   -0.018001
    29  C    0.063634
    32  C    0.489866
    33  C   -0.133714
    34  C   -0.293392
    35  C   -0.098779
    37  C   -0.066890
    39  C    0.122838
    42  C   -0.460848
    45  C   -0.355555
    48  C    0.356124
    52  C    0.354930
    56  C    0.294693
    60  C    0.353679
    64  C    0.290234
    68  C    0.347152
    72  N    0.212502
    73  N    0.189911
    74  C    0.883506
    75  O   -0.806436
    76  O   -0.672136
    77  O   -0.160112
    79  C    0.889979
    80  O   -0.816644
    81  O   -0.668311
    82  O   -0.159733
 Electronic spatial extent (au):  <R**2>=          18266.7990
 Charge=              0.0000 electrons
 Dipole moment (field-independent basis, Debye):
    X=              3.2327    Y=              0.0133    Z=             -0.0317  Tot=              3.2328
 Quadrupole moment (field-independent basis, Debye-Ang):
   XX=           -214.1100   YY=           -186.6695   ZZ=           -257.0098
   XY=              0.2405   XZ=             -1.7160   YZ=             -1.3544
 Traceless Quadrupole moment (field-independent basis, Debye-Ang):
   XX=              5.1531   YY=             32.5936   ZZ=            -37.7467
   XY=              0.2405   XZ=             -1.7160   YZ=             -1.3544
 Octapole moment (field-independent basis, Debye-Ang**2):
  XXX=            -85.0028  YYY=             -1.0426  ZZZ=             -4.5739  XYY=           -134.2315
  XXY=             -0.6935  XXZ=              5.6743  XZZ=             74.9483  YZZ=              1.1325
  YYZ=              5.7089  XYZ=             -6.3980
 Hexadecapole moment (field-independent basis, Debye-Ang**3):
 XXXX=         -12829.3714 YYYY=          -6686.4615 ZZZZ=          -3662.6232 XXXY=              1.2576
 XXXZ=            -61.3054 YYYX=             -1.0669 YYYZ=              0.9301 ZZZX=            -15.8213
 ZZZY=            -12.9075 XXYY=          -3290.3963 XXZZ=          -2981.6876 YYZZ=          -1829.7672
 XXYZ=            -15.6964 YYXZ=             14.8135 ZZXY=              5.7721
 N-N= 4.677826622808D+03 E-N=-1.330629325449D+04  KE= 1.686958810285D+03
 No NMR shielding tensors so no spin-rotation constants.
 Leave Link  601 at Fri Mar 15 16:06:15 2024, MaxMem=  1073741824 cpu:              32.1 elap:               2.3
 (Enter /packages/apps/gaussian/g16/g16/l9999.exe)
 1\1\GINC-C033\FOpt\RwB97XD\6-311+G(2d,2p)\C29H46N2O6\MDTURNE9\15-Mar-2
 024\0\\#p opt=calcfc wb97xd/6-311+g(2d,2p)\\no water double bi high\\0
 ,1\C,4.897249517,-3.7788560392,-0.6425342217\C,5.2098717651,-2.5058127
 879,0.1347370511\H,5.5492299443,-4.5960197601,-0.3338165569\H,3.865112
 9731,-4.0939514847,-0.48745654\H,5.0382317922,-3.6245683178,-1.7141750
 034\C,4.3652536874,-1.297469103,-0.298188609\H,5.0693141588,-2.6817078
 51,1.2049921992\H,6.2643490821,-2.2503988026,0.0060146978\C,4.80430987
 8,-0.0379926403,0.4744329956\H,4.57292689,-1.1212095695,-1.3588437009\
 H,4.4632534859,-0.1146683007,1.5109775702\H,5.8964967953,-0.0473234382
 ,0.5207527794\C,4.3952959313,1.3280681715,-0.1092207453\C,5.1183832281
 ,2.4537522895,0.6504107701\H,4.7450163506,1.3566080993,-1.1467329791\H
 ,4.7984007404,2.4358435139,1.6962261482\H,6.1892855965,2.2362514272,0.
 6526269114\C,4.8834128687,3.8411651171,0.0657231453\H,5.4490279504,4.5
 955766505,0.6125447701\H,5.19572809,3.8819612241,-0.9798220325\H,3.829
 0410157,4.1152349036,0.1068379392\C,2.8982033412,1.5634763437,-0.13248
 12689\C,2.2392519946,1.904541632,-1.3080874689\C,2.136933886,1.4073385
 538,1.0224885966\C,0.8556815237,2.0068094876,-1.350033988\H,2.81025793
 64,2.0332137514,-2.2194811211\C,0.7588606222,1.4991704719,0.9878806786
 \H,2.619409314,1.1413170502,1.9540493123\C,0.0984488908,1.7829323142,-
 0.2062405866\H,0.357872958,2.1895120151,-2.2944506925\H,0.1742960607,1
 .2810904524,1.8736496423\C,2.8790791465,-1.5711405633,-0.1733321088\C,
 2.0406580713,-1.404203918,-1.2678248122\C,2.3023088706,-1.9193808005,1
 .0463316155\C,0.6654236505,-1.4954970198,-1.1406408507\H,2.4662175681,
 -1.1286836128,-2.2243758344\C,0.9270479914,-2.0183408636,1.1812134392\
 H,2.9278907611,-2.0556585486,1.9198951695\C,0.0906519611,-1.7865275238
 ,0.0923581166\H,0.0220557461,-1.2709389198,-1.9829481052\H,0.494497677
 1,-2.207199531,2.1561122995\C,-1.3954463881,-1.6675520546,0.2521350685
 \H,-1.6621984682,-1.3120341598,1.2454143386\H,-1.778877388,-0.99433768
 43,-0.5085755291\C,-1.3953890528,1.6638508159,-0.2598646115\H,-1.73273
 8986,1.3079077796,-1.2313685207\H,-1.7236096222,0.9908187876,0.5264937
 071\C,-3.6400893117,-2.5612424919,0.0332789814\H,-4.2312975925,-3.4701
 813396,-0.0574298844\H,-3.8579967226,-2.0542053315,0.9715390548\H,-3.8
 132276818,-1.9193258643,-0.8273681016\C,-1.9468538139,-3.878500205,1.1
 743354033\H,-0.89079505,-4.1344817901,1.1892688433\H,-2.2346906442,-3.
 3721749775,2.0943653078\H,-2.5435543369,-4.7754836151,1.0238405317\C,-
 1.8580981609,-3.5768357825,-1.2581020219\H,-2.0198306685,-2.8338994569
 ,-2.0392009976\H,-0.8197562851,-3.8943740152,-1.2400916147\H,-2.510657
 6839,-4.435509948,-1.3992077157\C,-3.6181116708,2.5588262601,0.1219613
 185\H,-4.2003404859,3.4682505521,0.2556611053\H,-3.9049158231,2.051794
 4165,-0.7975832511\H,-3.7271818166,1.9175398996,0.9934506597\C,-1.7466
 750506,3.5755127924,1.2779920896\H,-1.8524725236,2.834230661,2.0701331
 988\H,-0.7122859024,3.892682346,1.1844773087\H,-2.3868647278,4.4348599
 662,1.4643182369\C,-2.0120632034,3.8739438423,-1.141752479\H,-0.959633
 7832,4.1284737683,-1.2346948125\H,-2.3677194339,3.3672431681,-2.037506
 6479\H,-2.5949700537,4.7717730045,-0.9484033192\N,-2.1948491222,-2.944
 7393965,0.0460960173\N,-2.1774144964,2.9415031694,0.0026709877\C,-3.25
 85131613,0.0653168323,-2.7639830473\O,-2.2422024343,-0.5963567985,-2.4
 949178126\O,-3.4146703151,1.3015510994,-2.7841590165\O,-4.383109129,-0
 .6998584627,-3.0431171598\H,-5.0741239417,-0.0658224494,-3.2465755728\
 C,-3.0517119905,-0.0589604435,2.8871449894\O,-2.0562532138,0.598128613
 4,2.5397139588\O,-3.21223941,-1.2944571812,2.9172383989\O,-4.146373134
 2,0.7111982705,3.2561818848\H,-4.822572032,0.0801473302,3.5119901034\\
 Version=ES64L-G16RevA.03\State=1-A\HF=-1693.7153487\RMSD=9.617e-09\RMS
 F=5.853e-07\Dipole=1.2718238,0.0049386,-0.0124969\Quadrupole=3.8312474
 ,24.2315508,-28.0627982,0.1828097,-1.2765833,-1.030252\PG=C01 [X(C29H4
 6N2O6)]\\@


 NATURE REVEALS EVERY SECRET ONCE.
                    - RALPH WALDO EMERSON
 Job cpu time:      22 days  3 hours 40 minutes 52.8 seconds.
 Elapsed time:       1 days  2 hours 54 minutes 59.9 seconds.
 File lengths (MBytes):  RWF=  37976 Int=      0 D2E=      0 Chk=    159 Scr=      1
 Normal termination of Gaussian 16 at Fri Mar 15 16:06:15 2024.
